<?xml version="1.0"?>
<VTKFile type="UnstructuredGrid" version="0.1" byte_order="LittleEndian" header_type="UInt32" compressor="vtkZLibDataCompressor">
  <UnstructuredGrid>
    <Piece NumberOfPoints="36" NumberOfCells="25">
      <PointData Scalars="point_type">
        <DataArray type="Int64" Name="point_type" format="ascii" RangeMin="4" RangeMax="4">
          4 4 4 4 4 4
          4 4 4 4 4 4
          4 4 4 4 4 4
          4 4 4 4 4 4
          4 4 4 4 4 4
          4 4 4 4 4 4
        </DataArray>
        <DataArray type="Float64" Name="rotation_vector" NumberOfComponents="3" format="ascii" RangeMin="1.5707978673455265" RangeMax="2.0943951023931953">
          1.5707954474537467 -0.001949655846318264 -0.001949655846318264 1.5707954474537467 -0.001949655846318264 -0.001949655846318264
          1.5707954474537467 -0.001949655846318264 -0.001949655846318264 1.5707954474537467 -0.001949655846318264 -0.001949655846318264
          1.2091995761561452 1.2091995761561452 1.2091995761561452 1.2091995761561452 1.2091995761561452 1.2091995761561452
          1.5663862083508928 0.13801681913971217 0.13801681913971217 1.5663862083508928 0.13801681913971217 0.13801681913971217
          1.5663862083508928 0.13801681913971217 0.13801681913971217 1.5663862083508928 0.13801681913971217 0.13801681913971217
          1.2091995761561452 1.2091995761561452 1.2091995761561452 1.2091995761561452 1.2091995761561452 1.2091995761561452
          1.5633879428054327 0.17883452228670516 0.17883452228670516 1.5633879428054327 0.17883452228670516 0.17883452228670516
          1.5633879428054327 0.17883452228670516 0.17883452228670516 1.5633879428054327 0.17883452228670516 0.17883452228670516
          1.2091995761561452 1.2091995761561452 1.2091995761561452 1.2091995761561452 1.2091995761561452 1.2091995761561452
          1.5478536246191945 0.31427044492244743 0.31427044492244743 1.5478536246191945 0.31427044492244743 0.31427044492244743
          1.5478536246191945 0.31427044492244743 0.31427044492244743 1.5478536246191945 0.31427044492244743 0.31427044492244743
          1.2091995761561452 1.2091995761561452 1.2091995761561452 1.2091995761561452 1.2091995761561452 1.2091995761561452
          1.4658994629978166 0.6670085708377257 0.6670085708377257 1.4658994629978166 0.6670085708377257 0.6670085708377257
          1.4658994629978166 0.6670085708377257 0.6670085708377257 1.4658994629978166 0.6670085708377257 0.6670085708377257
          1.2091995761561452 1.2091995761561452 1.2091995761561452 1.2091995761561452 1.2091995761561452 1.2091995761561452
          1.443596750066226 0.7330056758891732 0.7330056758891732 1.443596750066226 0.7330056758891732 0.7330056758891732
          1.443596750066226 0.7330056758891732 0.7330056758891732 1.443596750066226 0.7330056758891732 0.7330056758891732
          1.2091995761561452 1.2091995761561452 1.2091995761561452 1.2091995761561452 1.2091995761561452 1.2091995761561452
          <InformationKey name="L2_NORM_RANGE" location="vtkDataArray" length="2">
            <Value index="0">
              1.5707978673
            </Value>
            <Value index="1">
              2.0943951024
            </Value>
          </InformationKey>
        </DataArray>
        <DataArray type="Float64" Name="time" format="ascii" RangeMin="1.69" RangeMax="8.59">
          1.69 1.69 1.69 1.69 1.69 1.69
          3.0700000000000003 3.0700000000000003 3.0700000000000003 3.0700000000000003 3.0700000000000003 3.0700000000000003
          4.45 4.45 4.45 4.45 4.45 4.45
          5.83 5.83 5.83 5.83 5.83 5.83
          7.210000000000001 7.210000000000001 7.210000000000001 7.210000000000001 7.210000000000001 7.210000000000001
          8.59 8.59 8.59 8.59 8.59 8.59
        </DataArray>
        <DataArray type="Int64" Name="geometry_set_0_point" format="ascii" RangeMin="0" RangeMax="1">
          0 0 0 0 0 0
          0 0 0 0 0 0
          0 0 0 0 0 0
          0 0 0 0 0 0
          0 0 0 0 0 0
          1 1 1 1 1 1
        </DataArray>
        <DataArray type="Int64" Name="geometry_set_1_point" format="ascii" RangeMin="0" RangeMax="1">
          1 0 0 0 0 0
          1 0 0 0 0 0
          1 0 0 0 0 0
          1 0 0 0 0 0
          1 0 0 0 0 0
          1 0 0 0 0 0
        </DataArray>
        <DataArray type="Int64" Name="geometry_set_2_point" format="ascii" RangeMin="0" RangeMax="1">
          0 0 0 0 0 1
          0 0 0 0 0 1
          0 0 0 0 0 1
          0 0 0 0 0 1
          0 0 0 0 0 1
          0 0 0 0 0 1
        </DataArray>
        <DataArray type="Int64" Name="geometry_set_3_point" format="ascii" RangeMin="0" RangeMax="1">
          1 1 1 1 1 1
          0 0 0 0 0 0
          0 0 0 0 0 0
          0 0 0 0 0 0
          0 0 0 0 0 0
          0 0 0 0 0 0
        </DataArray>
        <DataArray type="Int64" Name="geometry_set_4_point" format="ascii" RangeMin="0" RangeMax="1">
          0 0 0 1 0 0
          0 0 0 0 0 0
          0 0 0 0 0 0
          0 0 0 0 0 0
          0 0 0 0 0 0
          0 0 0 0 0 0
        </DataArray>
        <DataArray type="Int64" Name="geometry_set_5_point" format="ascii" RangeMin="0" RangeMax="1">
          0 0 0 0 0 0
          0 0 0 1 0 0
          0 0 0 0 0 0
          0 0 0 0 0 0
          0 0 0 0 0 0
          0 0 0 0 0 0
        </DataArray>
        <DataArray type="Int64" Name="geometry_set_6_point" format="ascii" RangeMin="0" RangeMax="1">
          0 0 0 0 0 0
          0 0 0 0 0 0
          0 0 0 1 0 0
          0 0 0 0 0 0
          0 0 0 0 0 0
          0 0 0 0 0 0
        </DataArray>
        <DataArray type="Int64" Name="geometry_set_7_point" format="ascii" RangeMin="0" RangeMax="1">
          0 0 0 0 0 0
          0 0 0 0 0 0
          0 0 0 0 0 0
          0 0 0 1 0 0
          0 0 0 0 0 0
          0 0 0 0 0 0
        </DataArray>
        <DataArray type="Int64" Name="geometry_set_8_point" format="ascii" RangeMin="0" RangeMax="1">
          0 0 0 0 0 0
          0 0 0 0 0 0
          0 0 0 0 0 0
          0 0 0 0 0 0
          0 0 0 1 0 0
          0 0 0 0 0 0
        </DataArray>
        <DataArray type="Int64" Name="geometry_set_9_point" format="ascii" RangeMin="0" RangeMax="1">
          0 0 0 0 0 0
          0 0 0 0 0 0
          0 0 0 0 0 0
          0 0 0 0 0 0
          0 0 0 0 0 0
          0 0 0 1 0 0
        </DataArray>
        <DataArray type="Int64" Name="geometry_set_10_surface" format="ascii" RangeMin="1" RangeMax="1">
          1 1 1 1 1 1
          1 1 1 1 1 1
          1 1 1 1 1 1
          1 1 1 1 1 1
          1 1 1 1 1 1
          1 1 1 1 1 1
        </DataArray>
      </PointData>
      <CellData Scalars="element_type_id">
        <DataArray type="Int64" Name="element_type_id" format="ascii" RangeMin="0" RangeMax="0">
          0 0 0 0 0 0
          0 0 0 0 0 0
          0 0 0 0 0 0
          0 0 0 0 0 0
          0
        </DataArray>
        <DataArray type="Int64" Name="material_id" format="ascii" RangeMin="-1" RangeMax="-1">
          -1 -1 -1 -1 -1 -1
          -1 -1 -1 -1 -1 -1
          -1 -1 -1 -1 -1 -1
          -1 -1 -1 -1 -1 -1
          -1
        </DataArray>
        <DataArray type="Int64" Name="beamme_id" format="ascii" RangeMin="0" RangeMax="24">
          0 1 2 3 4 5
          6 7 8 9 10 11
          12 13 14 15 16 17
          18 19 20 21 22 23
          24
        </DataArray>
        <DataArray type="Float64" Name="rotation_vector" NumberOfComponents="12" format="ascii" RangeMin="3.1493075361101304" RangeMax="4.188790204786391">
          1.5707954474537467 -0.001949655846318264 -0.001949655846318264 1.5707954474537467 -0.001949655846318264 -0.001949655846318264
          1.5663862083508928 0.13801681913971217 0.13801681913971217 1.5663862083508928 0.13801681913971217 0.13801681913971217
          1.5707954474537467 -0.001949655846318264 -0.001949655846318264 1.5707954474537467 -0.001949655846318264 -0.001949655846318264
          1.5663862083508928 0.13801681913971217 0.13801681913971217 1.5663862083508928 0.13801681913971217 0.13801681913971217
          1.5707954474537467 -0.001949655846318264 -0.001949655846318264 1.5707954474537467 -0.001949655846318264 -0.001949655846318264
          1.5663862083508928 0.13801681913971217 0.13801681913971217 1.5663862083508928 0.13801681913971217 0.13801681913971217
          1.2091995761561452 1.2091995761561452 1.2091995761561452 1.2091995761561452 1.2091995761561452 1.2091995761561452
          1.2091995761561452 1.2091995761561452 1.2091995761561452 1.2091995761561452 1.2091995761561452 1.2091995761561452
          1.2091995761561452 1.2091995761561452 1.2091995761561452 1.2091995761561452 1.2091995761561452 1.2091995761561452
          1.2091995761561452 1.2091995761561452 1.2091995761561452 1.2091995761561452 1.2091995761561452 1.2091995761561452
          1.5663862083508928 0.13801681913971217 0.13801681913971217 1.5663862083508928 0.13801681913971217 0.13801681913971217
          1.5633879428054327 0.17883452228670516 0.17883452228670516 1.5633879428054327 0.17883452228670516 0.17883452228670516
          1.5663862083508928 0.13801681913971217 0.13801681913971217 1.5663862083508928 0.13801681913971217 0.13801681913971217
          1.5633879428054327 0.17883452228670516 0.17883452228670516 1.5633879428054327 0.17883452228670516 0.17883452228670516
          1.5663862083508928 0.13801681913971217 0.13801681913971217 1.5663862083508928 0.13801681913971217 0.13801681913971217
          1.5633879428054327 0.17883452228670516 0.17883452228670516 1.5633879428054327 0.17883452228670516 0.17883452228670516
          1.2091995761561452 1.2091995761561452 1.2091995761561452 1.2091995761561452 1.2091995761561452 1.2091995761561452
          1.2091995761561452 1.2091995761561452 1.2091995761561452 1.2091995761561452 1.2091995761561452 1.2091995761561452
          1.2091995761561452 1.2091995761561452 1.2091995761561452 1.2091995761561452 1.2091995761561452 1.2091995761561452
          1.2091995761561452 1.2091995761561452 1.2091995761561452 1.2091995761561452 1.2091995761561452 1.2091995761561452
          1.5633879428054327 0.17883452228670516 0.17883452228670516 1.5633879428054327 0.17883452228670516 0.17883452228670516
          1.5478536246191945 0.31427044492244743 0.31427044492244743 1.5478536246191945 0.31427044492244743 0.31427044492244743
          1.5633879428054327 0.17883452228670516 0.17883452228670516 1.5633879428054327 0.17883452228670516 0.17883452228670516
          1.5478536246191945 0.31427044492244743 0.31427044492244743 1.5478536246191945 0.31427044492244743 0.31427044492244743
          1.5633879428054327 0.17883452228670516 0.17883452228670516 1.5633879428054327 0.17883452228670516 0.17883452228670516
          1.5478536246191945 0.31427044492244743 0.31427044492244743 1.5478536246191945 0.31427044492244743 0.31427044492244743
          1.2091995761561452 1.2091995761561452 1.2091995761561452 1.2091995761561452 1.2091995761561452 1.2091995761561452
          1.2091995761561452 1.2091995761561452 1.2091995761561452 1.2091995761561452 1.2091995761561452 1.2091995761561452
          1.2091995761561452 1.2091995761561452 1.2091995761561452 1.2091995761561452 1.2091995761561452 1.2091995761561452
          1.2091995761561452 1.2091995761561452 1.2091995761561452 1.2091995761561452 1.2091995761561452 1.2091995761561452
          1.5478536246191945 0.31427044492244743 0.31427044492244743 1.5478536246191945 0.31427044492244743 0.31427044492244743
          1.4658994629978166 0.6670085708377257 0.6670085708377257 1.4658994629978166 0.6670085708377257 0.6670085708377257
          1.5478536246191945 0.31427044492244743 0.31427044492244743 1.5478536246191945 0.31427044492244743 0.31427044492244743
          1.4658994629978166 0.6670085708377257 0.6670085708377257 1.4658994629978166 0.6670085708377257 0.6670085708377257
          1.5478536246191945 0.31427044492244743 0.31427044492244743 1.5478536246191945 0.31427044492244743 0.31427044492244743
          1.4658994629978166 0.6670085708377257 0.6670085708377257 1.4658994629978166 0.6670085708377257 0.6670085708377257
          1.2091995761561452 1.2091995761561452 1.2091995761561452 1.2091995761561452 1.2091995761561452 1.2091995761561452
          1.2091995761561452 1.2091995761561452 1.2091995761561452 1.2091995761561452 1.2091995761561452 1.2091995761561452
          1.2091995761561452 1.2091995761561452 1.2091995761561452 1.2091995761561452 1.2091995761561452 1.2091995761561452
          1.2091995761561452 1.2091995761561452 1.2091995761561452 1.2091995761561452 1.2091995761561452 1.2091995761561452
          1.4658994629978166 0.6670085708377257 0.6670085708377257 1.4658994629978166 0.6670085708377257 0.6670085708377257
          1.443596750066226 0.7330056758891732 0.7330056758891732 1.443596750066226 0.7330056758891732 0.7330056758891732
          1.4658994629978166 0.6670085708377257 0.6670085708377257 1.4658994629978166 0.6670085708377257 0.6670085708377257
          1.443596750066226 0.7330056758891732 0.7330056758891732 1.443596750066226 0.7330056758891732 0.7330056758891732
          1.4658994629978166 0.6670085708377257 0.6670085708377257 1.4658994629978166 0.6670085708377257 0.6670085708377257
          1.443596750066226 0.7330056758891732 0.7330056758891732 1.443596750066226 0.7330056758891732 0.7330056758891732
          1.2091995761561452 1.2091995761561452 1.2091995761561452 1.2091995761561452 1.2091995761561452 1.2091995761561452
          1.2091995761561452 1.2091995761561452 1.2091995761561452 1.2091995761561452 1.2091995761561452 1.2091995761561452
          1.2091995761561452 1.2091995761561452 1.2091995761561452 1.2091995761561452 1.2091995761561452 1.2091995761561452
          1.2091995761561452 1.2091995761561452 1.2091995761561452 1.2091995761561452 1.2091995761561452 1.2091995761561452
          <InformationKey name="L2_NORM_RANGE" location="vtkDataArray" length="2">
            <Value index="0">
              3.1493075361
            </Value>
            <Value index="1">
              4.1887902048
            </Value>
          </InformationKey>
        </DataArray>
      </CellData>
      <Points>
        <DataArray type="Float64" Name="Points" NumberOfComponents="3" format="ascii" RangeMin="0.07153151114084326" RangeMax="3.605551275463989">
          0.9929036510941185 0 0 1.3286024340627456 -0.000833333333333334 0
          1.664301217031373 -0.001666666666666668 0 2 -0.0025000000000000022 0
          2 1.49875 0 2 3 0
          0.07153151114084326 0 0 0.7143543407605621 0.1141666666666667 0
          1.357177170380281 0.2283333333333334 0 2 0.3425000000000001 0
          2 1.67125 0 2 3 0
          -0.9657730606206388 0 0 0.022817959586240666 0.22916666666666666 0
          1.0114089797931203 0.4583333333333333 0 2 0.6875 0
          2 1.84375 0 2 3 0
          -0.4378315232631469 0 0 0.37477898449123526 0.3441666666666666 0
          1.1873894922456174 0.6883333333333332 0 1.9999999999999998 1.0325 0
          2 2.01625 0 2 3 0
          0.7997115925405986 0 0 1.199807728360399 0.4591666666666667 0
          1.5999038641801995 0.9183333333333334 0 2 1.3775000000000002 0
          2 2.18875 0 2 3 0
          0.7411474656789752 0 0 1.1607649771193167 0.5741666666666666 0
          1.5803824885596582 1.1483333333333332 0 2 1.7225 0
          2 2.36125 0 2 3 0
          <InformationKey name="L2_NORM_RANGE" location="vtkDataArray" length="2">
            <Value index="0">
              0.071531511141
            </Value>
            <Value index="1">
              3.6055512755
            </Value>
          </InformationKey>
        </DataArray>
      </Points>
      <Cells>
        <DataArray type="Int64" Name="connectivity" format="ascii" RangeMin="0" RangeMax="35">
          0 1 7 6 1 2
          8 7 2 3 9 8
          3 4 10 9 4 5
          11 10 6 7 13 12
          7 8 14 13 8 9
          15 14 9 10 16 15
          10 11 17 16 12 13
          19 18 13 14 20 19
          14 15 21 20 15 16
          22 21 16 17 23 22
          18 19 25 24 19 20
          26 25 20 21 27 26
          21 22 28 27 22 23
          29 28 24 25 31 30
          25 26 32 31 26 27
          33 32 27 28 34 33
          28 29 35 34
        </DataArray>
        <DataArray type="Int64" Name="offsets" format="ascii" RangeMin="4" RangeMax="100">
          4 8 12 16 20 24
          28 32 36 40 44 48
          52 56 60 64 68 72
          76 80 84 88 92 96
          100
        </DataArray>
        <DataArray type="UInt8" Name="types" format="ascii" RangeMin="9" RangeMax="9">
          9 9 9 9 9 9
          9 9 9 9 9 9
          9 9 9 9 9 9
          9 9 9 9 9 9
          9
        </DataArray>
      </Cells>
    </Piece>
  </UnstructuredGrid>
</VTKFile>
