<?xml version="1.0"?>
<VTKFile type="UnstructuredGrid" version="0.1" byte_order="LittleEndian" header_type="UInt32" compressor="vtkZLibDataCompressor">
  <UnstructuredGrid>
    <Piece NumberOfPoints="132" NumberOfCells="25">
      <PointData Scalars="point_type">
        <DataArray type="Int64" Name="point_type" format="ascii" RangeMin="4" RangeMax="4">
          4 4 4 4 4 4
          4 4 4 4 4 4
          4 4 4 4 4 4
          4 4 4 4 4 4
          4 4 4 4 4 4
          4 4 4 4 4 4
          4 4 4 4 4 4
          4 4 4 4 4 4
          4 4 4 4 4 4
          4 4 4 4 4 4
          4 4 4 4 4 4
          4 4 4 4 4 4
          4 4 4 4 4 4
          4 4 4 4 4 4
          4 4 4 4 4 4
          4 4 4 4 4 4
          4 4 4 4 4 4
          4 4 4 4 4 4
          4 4 4 4 4 4
          4 4 4 4 4 4
          4 4 4 4 4 4
          4 4 4 4 4 4
        </DataArray>
        <DataArray type="Float64" Name="rotation_vector" NumberOfComponents="3" format="ascii" RangeMin="0" RangeMax="2.0943951023931953">
          0 0 0 0 0 0
          0 0 0 0 0 0
          0 0 0 0 0 0
          0 0 0 1.2091995761561452 1.2091995761561452 1.2091995761561452
          1.2091995761561452 1.2091995761561452 1.2091995761561452 1.2091995761561452 1.2091995761561452 1.2091995761561452
          1.2091995761561452 1.2091995761561452 1.2091995761561452 1.2091995761561452 1.2091995761561452 1.2091995761561452
          0 0 0 0 0 0
          0 0 0 0 0 0
          0 0 0 0 0 0
          0 0 0 1.2091995761561452 1.2091995761561452 1.2091995761561452
          1.2091995761561452 1.2091995761561452 1.2091995761561452 1.2091995761561452 1.2091995761561452 1.2091995761561452
          1.2091995761561452 1.2091995761561452 1.2091995761561452 1.2091995761561452 1.2091995761561452 1.2091995761561452
          0 0 0 0 0 0
          0 0 0 0 0 0
          0 0 0 0 0 0
          0 0 0 1.2091995761561452 1.2091995761561452 1.2091995761561452
          1.2091995761561452 1.2091995761561452 1.2091995761561452 1.2091995761561452 1.2091995761561452 1.2091995761561452
          1.2091995761561452 1.2091995761561452 1.2091995761561452 1.2091995761561452 1.2091995761561452 1.2091995761561452
          0 0 0 0 0 0
          0 0 0 0 0 0
          0 0 0 0 0 0
          0 0 0 1.2091995761561452 1.2091995761561452 1.2091995761561452
          1.2091995761561452 1.2091995761561452 1.2091995761561452 1.2091995761561452 1.2091995761561452 1.2091995761561452
          1.2091995761561452 1.2091995761561452 1.2091995761561452 1.2091995761561452 1.2091995761561452 1.2091995761561452
          0 0 0 0 0 0
          0 0 0 0 0 0
          0 0 0 0 0 0
          0 0 0 1.2091995761561452 1.2091995761561452 1.2091995761561452
          1.2091995761561452 1.2091995761561452 1.2091995761561452 1.2091995761561452 1.2091995761561452 1.2091995761561452
          1.2091995761561452 1.2091995761561452 1.2091995761561452 1.2091995761561452 1.2091995761561452 1.2091995761561452
          0 0 0 0 0 0
          0 0 0 0 0 0
          0 0 0 0 0 0
          0 0 0 1.2091995761561452 1.2091995761561452 1.2091995761561452
          1.2091995761561452 1.2091995761561452 1.2091995761561452 1.2091995761561452 1.2091995761561452 1.2091995761561452
          1.2091995761561452 1.2091995761561452 1.2091995761561452 1.2091995761561452 1.2091995761561452 1.2091995761561452
          0 0 0 0 0 0
          0 0 0 0 0 0
          0 0 0 0 0 0
          0 0 0 1.2091995761561452 1.2091995761561452 1.2091995761561452
          1.2091995761561452 1.2091995761561452 1.2091995761561452 1.2091995761561452 1.2091995761561452 1.2091995761561452
          1.2091995761561452 1.2091995761561452 1.2091995761561452 1.2091995761561452 1.2091995761561452 1.2091995761561452
          0 0 0 0 0 0
          0 0 0 0 0 0
          0 0 0 0 0 0
          0 0 0 1.2091995761561452 1.2091995761561452 1.2091995761561452
          1.2091995761561452 1.2091995761561452 1.2091995761561452 1.2091995761561452 1.2091995761561452 1.2091995761561452
          1.2091995761561452 1.2091995761561452 1.2091995761561452 1.2091995761561452 1.2091995761561452 1.2091995761561452
          0 0 0 0 0 0
          0 0 0 0 0 0
          0 0 0 0 0 0
          0 0 0 1.2091995761561452 1.2091995761561452 1.2091995761561452
          1.2091995761561452 1.2091995761561452 1.2091995761561452 1.2091995761561452 1.2091995761561452 1.2091995761561452
          1.2091995761561452 1.2091995761561452 1.2091995761561452 1.2091995761561452 1.2091995761561452 1.2091995761561452
          0 0 0 0 0 0
          0 0 0 0 0 0
          0 0 0 0 0 0
          0 0 0 1.2091995761561452 1.2091995761561452 1.2091995761561452
          1.2091995761561452 1.2091995761561452 1.2091995761561452 1.2091995761561452 1.2091995761561452 1.2091995761561452
          1.2091995761561452 1.2091995761561452 1.2091995761561452 1.2091995761561452 1.2091995761561452 1.2091995761561452
          0 0 0 0 0 0
          0 0 0 0 0 0
          0 0 0 0 0 0
          0 0 0 1.2091995761561452 1.2091995761561452 1.2091995761561452
          1.2091995761561452 1.2091995761561452 1.2091995761561452 1.2091995761561452 1.2091995761561452 1.2091995761561452
          1.2091995761561452 1.2091995761561452 1.2091995761561452 1.2091995761561452 1.2091995761561452 1.2091995761561452
          <InformationKey name="L2_NORM_RANGE" location="vtkDataArray" length="2">
            <Value index="0">
              0
            </Value>
            <Value index="1">
              2.0943951024
            </Value>
          </InformationKey>
        </DataArray>
        <DataArray type="Float64" Name="time" format="ascii" RangeMin="1.69" RangeMax="8.59">
          1.69 1.69 1.69 1.69 1.69 1.69
          1.69 1.69 1.69 1.69 1.69 1.69
          2.38 2.38 2.38 2.38 2.38 2.38
          2.38 2.38 2.38 2.38 2.38 2.38
          3.0700000000000003 3.0700000000000003 3.0700000000000003 3.0700000000000003 3.0700000000000003 3.0700000000000003
          3.0700000000000003 3.0700000000000003 3.0700000000000003 3.0700000000000003 3.0700000000000003 3.0700000000000003
          3.7600000000000002 3.7600000000000002 3.7600000000000002 3.7600000000000002 3.7600000000000002 3.7600000000000002
          3.7600000000000002 3.7600000000000002 3.7600000000000002 3.7600000000000002 3.7600000000000002 3.7600000000000002
          4.45 4.45 4.45 4.45 4.45 4.45
          4.45 4.45 4.45 4.45 4.45 4.45
          5.140000000000001 5.140000000000001 5.140000000000001 5.140000000000001 5.140000000000001 5.140000000000001
          5.140000000000001 5.140000000000001 5.140000000000001 5.140000000000001 5.140000000000001 5.140000000000001
          5.83 5.83 5.83 5.83 5.83 5.83
          5.83 5.83 5.83 5.83 5.83 5.83
          6.52 6.52 6.52 6.52 6.52 6.52
          6.52 6.52 6.52 6.52 6.52 6.52
          7.210000000000001 7.210000000000001 7.210000000000001 7.210000000000001 7.210000000000001 7.210000000000001
          7.210000000000001 7.210000000000001 7.210000000000001 7.210000000000001 7.210000000000001 7.210000000000001
          7.9 7.9 7.9 7.9 7.9 7.9
          7.9 7.9 7.9 7.9 7.9 7.9
          8.59 8.59 8.59 8.59 8.59 8.59
          8.59 8.59 8.59 8.59 8.59 8.59
        </DataArray>
        <DataArray type="Int64" Name="geometry_set_0_point" format="ascii" RangeMin="0" RangeMax="1">
          0 0 0 0 0 0
          0 0 0 0 0 0
          0 0 0 0 0 0
          0 0 0 0 0 0
          0 0 0 0 0 0
          0 0 0 0 0 0
          0 0 0 0 0 0
          0 0 0 0 0 0
          0 0 0 0 0 0
          0 0 0 0 0 0
          0 0 0 0 0 0
          0 0 0 0 0 0
          0 0 0 0 0 0
          0 0 0 0 0 0
          0 0 0 0 0 0
          0 0 0 0 0 0
          0 0 0 0 0 0
          0 0 0 0 0 0
          0 0 0 0 0 0
          0 0 0 0 0 0
          1 1 1 1 1 1
          1 1 1 1 1 1
        </DataArray>
        <DataArray type="Int64" Name="geometry_set_1_point" format="ascii" RangeMin="0" RangeMax="1">
          1 0 0 0 0 0
          0 0 0 0 0 0
          1 0 0 0 0 0
          0 0 0 0 0 0
          1 0 0 0 0 0
          0 0 0 0 0 0
          1 0 0 0 0 0
          0 0 0 0 0 0
          1 0 0 0 0 0
          0 0 0 0 0 0
          1 0 0 0 0 0
          0 0 0 0 0 0
          1 0 0 0 0 0
          0 0 0 0 0 0
          1 0 0 0 0 0
          0 0 0 0 0 0
          1 0 0 0 0 0
          0 0 0 0 0 0
          1 0 0 0 0 0
          0 0 0 0 0 0
          1 0 0 0 0 0
          0 0 0 0 0 0
        </DataArray>
        <DataArray type="Int64" Name="geometry_set_2_point" format="ascii" RangeMin="0" RangeMax="1">
          0 0 0 0 0 0
          0 0 0 0 0 1
          0 0 0 0 0 0
          0 0 0 0 0 1
          0 0 0 0 0 0
          0 0 0 0 0 1
          0 0 0 0 0 0
          0 0 0 0 0 1
          0 0 0 0 0 0
          0 0 0 0 0 1
          0 0 0 0 0 0
          0 0 0 0 0 1
          0 0 0 0 0 0
          0 0 0 0 0 1
          0 0 0 0 0 0
          0 0 0 0 0 1
          0 0 0 0 0 0
          0 0 0 0 0 1
          0 0 0 0 0 0
          0 0 0 0 0 1
          0 0 0 0 0 0
          0 0 0 0 0 1
        </DataArray>
        <DataArray type="Int64" Name="geometry_set_3_point" format="ascii" RangeMin="0" RangeMax="1">
          1 1 1 1 1 1
          1 1 1 1 1 1
          0 0 0 0 0 0
          0 0 0 0 0 0
          0 0 0 0 0 0
          0 0 0 0 0 0
          0 0 0 0 0 0
          0 0 0 0 0 0
          0 0 0 0 0 0
          0 0 0 0 0 0
          0 0 0 0 0 0
          0 0 0 0 0 0
          0 0 0 0 0 0
          0 0 0 0 0 0
          0 0 0 0 0 0
          0 0 0 0 0 0
          0 0 0 0 0 0
          0 0 0 0 0 0
          0 0 0 0 0 0
          0 0 0 0 0 0
          0 0 0 0 0 0
          0 0 0 0 0 0
        </DataArray>
        <DataArray type="Int64" Name="geometry_set_4_surface" format="ascii" RangeMin="1" RangeMax="1">
          1 1 1 1 1 1
          1 1 1 1 1 1
          1 1 1 1 1 1
          1 1 1 1 1 1
          1 1 1 1 1 1
          1 1 1 1 1 1
          1 1 1 1 1 1
          1 1 1 1 1 1
          1 1 1 1 1 1
          1 1 1 1 1 1
          1 1 1 1 1 1
          1 1 1 1 1 1
          1 1 1 1 1 1
          1 1 1 1 1 1
          1 1 1 1 1 1
          1 1 1 1 1 1
          1 1 1 1 1 1
          1 1 1 1 1 1
          1 1 1 1 1 1
          1 1 1 1 1 1
          1 1 1 1 1 1
          1 1 1 1 1 1
        </DataArray>
      </PointData>
      <CellData Scalars="element_type_id">
        <DataArray type="Int64" Name="element_type_id" format="ascii" RangeMin="0" RangeMax="0">
          0 0 0 0 0 0
          0 0 0 0 0 0
          0 0 0 0 0 0
          0 0 0 0 0 0
          0
        </DataArray>
        <DataArray type="Int64" Name="material_id" format="ascii" RangeMin="-1" RangeMax="-1">
          -1 -1 -1 -1 -1 -1
          -1 -1 -1 -1 -1 -1
          -1 -1 -1 -1 -1 -1
          -1 -1 -1 -1 -1 -1
          -1
        </DataArray>
        <DataArray type="Int64" Name="beamme_id" format="ascii" RangeMin="0" RangeMax="24">
          0 1 2 3 4 5
          6 7 8 9 10 11
          12 13 14 15 16 17
          18 19 20 21 22 23
          24
        </DataArray>
        <DataArray type="Float64" Name="rotation_vector" NumberOfComponents="27" format="ascii" RangeMin="0" RangeMax="6.283185307179585">
          0 0 0 0 0 0
          0 0 0 0 0 0
          0 0 0 0 0 0
          0 0 0 0 0 0
          0 0 0 0 0 0
          0 0 0 0 0 0
          0 0 0 0 0 0
          0 0 0 0 0 0
          0 0 0 0 0 0
          0 0 0 0 0 0
          0 0 0 0 0 0
          0 0 0 0 0 0
          0 0 0 0 0 0
          0 0 0 1.2091995761561452 1.2091995761561452 1.2091995761561452
          1.2091995761561452 1.2091995761561452 1.2091995761561452 1.2091995761561452 1.2091995761561452 1.2091995761561452
          1.2091995761561452 1.2091995761561452 1.2091995761561452 1.2091995761561452 1.2091995761561452 1.2091995761561452
          1.2091995761561452 1.2091995761561452 1.2091995761561452 1.2091995761561452 1.2091995761561452 1.2091995761561452
          1.2091995761561452 1.2091995761561452 1.2091995761561452 1.2091995761561452 1.2091995761561452 1.2091995761561452
          1.2091995761561452 1.2091995761561452 1.2091995761561452 1.2091995761561452 1.2091995761561452 1.2091995761561452
          1.2091995761561452 1.2091995761561452 1.2091995761561452 1.2091995761561452 1.2091995761561452 1.2091995761561452
          1.2091995761561452 1.2091995761561452 1.2091995761561452 1.2091995761561452 1.2091995761561452 1.2091995761561452
          1.2091995761561452 1.2091995761561452 1.2091995761561452 1.2091995761561452 1.2091995761561452 1.2091995761561452
          1.2091995761561452 1.2091995761561452 1.2091995761561452 0 0 0
          0 0 0 0 0 0
          0 0 0 0 0 0
          0 0 0 0 0 0
          0 0 0 0 0 0
          0 0 0 0 0 0
          0 0 0 0 0 0
          0 0 0 0 0 0
          0 0 0 0 0 0
          0 0 0 0 0 0
          0 0 0 0 0 0
          0 0 0 0 0 0
          0 0 0 0 0 0
          0 0 0 0 0 0
          1.2091995761561452 1.2091995761561452 1.2091995761561452 1.2091995761561452 1.2091995761561452 1.2091995761561452
          1.2091995761561452 1.2091995761561452 1.2091995761561452 1.2091995761561452 1.2091995761561452 1.2091995761561452
          1.2091995761561452 1.2091995761561452 1.2091995761561452 1.2091995761561452 1.2091995761561452 1.2091995761561452
          1.2091995761561452 1.2091995761561452 1.2091995761561452 1.2091995761561452 1.2091995761561452 1.2091995761561452
          1.2091995761561452 1.2091995761561452 1.2091995761561452 1.2091995761561452 1.2091995761561452 1.2091995761561452
          1.2091995761561452 1.2091995761561452 1.2091995761561452 1.2091995761561452 1.2091995761561452 1.2091995761561452
          1.2091995761561452 1.2091995761561452 1.2091995761561452 1.2091995761561452 1.2091995761561452 1.2091995761561452
          1.2091995761561452 1.2091995761561452 1.2091995761561452 1.2091995761561452 1.2091995761561452 1.2091995761561452
          1.2091995761561452 1.2091995761561452 1.2091995761561452 1.2091995761561452 1.2091995761561452 1.2091995761561452
          0 0 0 0 0 0
          0 0 0 0 0 0
          0 0 0 0 0 0
          0 0 0 0 0 0
          0 0 0 0 0 0
          0 0 0 0 0 0
          0 0 0 0 0 0
          0 0 0 0 0 0
          0 0 0 0 0 0
          0 0 0 0 0 0
          0 0 0 0 0 0
          0 0 0 0 0 0
          0 0 0 0 0 0
          0 0 0 1.2091995761561452 1.2091995761561452 1.2091995761561452
          1.2091995761561452 1.2091995761561452 1.2091995761561452 1.2091995761561452 1.2091995761561452 1.2091995761561452
          1.2091995761561452 1.2091995761561452 1.2091995761561452 1.2091995761561452 1.2091995761561452 1.2091995761561452
          1.2091995761561452 1.2091995761561452 1.2091995761561452 1.2091995761561452 1.2091995761561452 1.2091995761561452
          1.2091995761561452 1.2091995761561452 1.2091995761561452 1.2091995761561452 1.2091995761561452 1.2091995761561452
          1.2091995761561452 1.2091995761561452 1.2091995761561452 1.2091995761561452 1.2091995761561452 1.2091995761561452
          1.2091995761561452 1.2091995761561452 1.2091995761561452 1.2091995761561452 1.2091995761561452 1.2091995761561452
          1.2091995761561452 1.2091995761561452 1.2091995761561452 1.2091995761561452 1.2091995761561452 1.2091995761561452
          1.2091995761561452 1.2091995761561452 1.2091995761561452 1.2091995761561452 1.2091995761561452 1.2091995761561452
          1.2091995761561452 1.2091995761561452 1.2091995761561452 0 0 0
          0 0 0 0 0 0
          0 0 0 0 0 0
          0 0 0 0 0 0
          0 0 0 0 0 0
          0 0 0 0 0 0
          0 0 0 0 0 0
          0 0 0 0 0 0
          0 0 0 0 0 0
          0 0 0 0 0 0
          0 0 0 0 0 0
          0 0 0 0 0 0
          0 0 0 0 0 0
          0 0 0 0 0 0
          1.2091995761561452 1.2091995761561452 1.2091995761561452 1.2091995761561452 1.2091995761561452 1.2091995761561452
          1.2091995761561452 1.2091995761561452 1.2091995761561452 1.2091995761561452 1.2091995761561452 1.2091995761561452
          1.2091995761561452 1.2091995761561452 1.2091995761561452 1.2091995761561452 1.2091995761561452 1.2091995761561452
          1.2091995761561452 1.2091995761561452 1.2091995761561452 1.2091995761561452 1.2091995761561452 1.2091995761561452
          1.2091995761561452 1.2091995761561452 1.2091995761561452 1.2091995761561452 1.2091995761561452 1.2091995761561452
          1.2091995761561452 1.2091995761561452 1.2091995761561452 1.2091995761561452 1.2091995761561452 1.2091995761561452
          1.2091995761561452 1.2091995761561452 1.2091995761561452 1.2091995761561452 1.2091995761561452 1.2091995761561452
          1.2091995761561452 1.2091995761561452 1.2091995761561452 1.2091995761561452 1.2091995761561452 1.2091995761561452
          1.2091995761561452 1.2091995761561452 1.2091995761561452 1.2091995761561452 1.2091995761561452 1.2091995761561452
          0 0 0 0 0 0
          0 0 0 0 0 0
          0 0 0 0 0 0
          0 0 0 0 0 0
          0 0 0 0 0 0
          0 0 0 0 0 0
          0 0 0 0 0 0
          0 0 0 0 0 0
          0 0 0 0 0 0
          0 0 0 0 0 0
          0 0 0 0 0 0
          0 0 0 0 0 0
          0 0 0 0 0 0
          0 0 0 1.2091995761561452 1.2091995761561452 1.2091995761561452
          1.2091995761561452 1.2091995761561452 1.2091995761561452 1.2091995761561452 1.2091995761561452 1.2091995761561452
          1.2091995761561452 1.2091995761561452 1.2091995761561452 1.2091995761561452 1.2091995761561452 1.2091995761561452
          1.2091995761561452 1.2091995761561452 1.2091995761561452 1.2091995761561452 1.2091995761561452 1.2091995761561452
          1.2091995761561452 1.2091995761561452 1.2091995761561452 1.2091995761561452 1.2091995761561452 1.2091995761561452
          1.2091995761561452 1.2091995761561452 1.2091995761561452 1.2091995761561452 1.2091995761561452 1.2091995761561452
          1.2091995761561452 1.2091995761561452 1.2091995761561452 1.2091995761561452 1.2091995761561452 1.2091995761561452
          1.2091995761561452 1.2091995761561452 1.2091995761561452 1.2091995761561452 1.2091995761561452 1.2091995761561452
          1.2091995761561452 1.2091995761561452 1.2091995761561452 1.2091995761561452 1.2091995761561452 1.2091995761561452
          1.2091995761561452 1.2091995761561452 1.2091995761561452
          <InformationKey name="L2_NORM_RANGE" location="vtkDataArray" length="2">
            <Value index="0">
              0
            </Value>
            <Value index="1">
              6.2831853072
            </Value>
          </InformationKey>
        </DataArray>
      </CellData>
      <Points>
        <DataArray type="Float64" Name="Points" NumberOfComponents="3" format="ascii" RangeMin="0" RangeMax="1.4142135623730951">
          0 0 0 0.16666666666666666 0 0
          0.3333333333333333 0 0 0.5 0 0
          0.6666666666666666 0 0 0.8333333333333333 0 0
          1 0 0 1 0 0
          1 0.25 0 1 0.5 0
          1 0.75 0 1 1 0
          0 0 0 0.16666666666666666 0 0
          0.3333333333333333 0 0 0.5 0 0
          0.6666666666666666 0 0 0.8333333333333333 0 0
          1 0 0 1 0 0
          1 0.25 0 1 0.5 0
          1 0.75 0 1 1 0
          0 0 0 0.16666666666666666 0 0
          0.3333333333333333 0 0 0.5 0 0
          0.6666666666666666 0 0 0.8333333333333333 0 0
          1 0 0 1 0 0
          1 0.25 0 1 0.5 0
          1 0.75 0 1 1 0
          0 0 0 0.16666666666666666 0 0
          0.3333333333333333 0 0 0.5 0 0
          0.6666666666666666 0 0 0.8333333333333333 0 0
          1 0 0 1 0 0
          1 0.25 0 1 0.5 0
          1 0.75 0 1 1 0
          0 0 0 0.16666666666666666 0 0
          0.3333333333333333 0 0 0.5 0 0
          0.6666666666666666 0 0 0.8333333333333333 0 0
          1 0 0 1 0 0
          1 0.25 0 1 0.5 0
          1 0.75 0 1 1 0
          0 0 0 0.16666666666666666 0 0
          0.3333333333333333 0 0 0.5 0 0
          0.6666666666666666 0 0 0.8333333333333333 0 0
          1 0 0 1 0 0
          1 0.25 0 1 0.5 0
          1 0.75 0 1 1 0
          0 0 0 0.16666666666666666 0 0
          0.3333333333333333 0 0 0.5 0 0
          0.6666666666666666 0 0 0.8333333333333333 0 0
          1 0 0 1 0 0
          1 0.25 0 1 0.5 0
          1 0.75 0 1 1 0
          0 0 0 0.16666666666666666 0 0
          0.3333333333333333 0 0 0.5 0 0
          0.6666666666666666 0 0 0.8333333333333333 0 0
          1 0 0 1 0 0
          1 0.25 0 1 0.5 0
          1 0.75 0 1 1 0
          0 0 0 0.16666666666666666 0 0
          0.3333333333333333 0 0 0.5 0 0
          0.6666666666666666 0 0 0.8333333333333333 0 0
          1 0 0 1 0 0
          1 0.25 0 1 0.5 0
          1 0.75 0 1 1 0
          0 0 0 0.16666666666666666 0 0
          0.3333333333333333 0 0 0.5 0 0
          0.6666666666666666 0 0 0.8333333333333333 0 0
          1 0 0 1 0 0
          1 0.25 0 1 0.5 0
          1 0.75 0 1 1 0
          0 0 0 0.16666666666666666 0 0
          0.3333333333333333 0 0 0.5 0 0
          0.6666666666666666 0 0 0.8333333333333333 0 0
          1 0 0 1 0 0
          1 0.25 0 1 0.5 0
          1 0.75 0 1 1 0
          <InformationKey name="L2_NORM_RANGE" location="vtkDataArray" length="2">
            <Value index="0">
              0
            </Value>
            <Value index="1">
              1.4142135624
            </Value>
          </InformationKey>
        </DataArray>
      </Points>
      <Cells>
        <DataArray type="Int64" Name="connectivity" format="ascii" RangeMin="0" RangeMax="131">
          0 2 26 24 1 14
          25 12 13 2 4 28
          26 3 16 27 14 15
          4 6 30 28 5 18
          29 16 17 7 9 33
          31 8 21 32 19 20
          9 11 35 33 10 23
          34 21 22 24 26 50
          48 25 38 49 36 37
          26 28 52 50 27 40
          51 38 39 28 30 54
          52 29 42 53 40 41
          31 33 57 55 32 45
          56 43 44 33 35 59
          57 34 47 58 45 46
          48 50 74 72 49 62
          73 60 61 50 52 76
          74 51 64 75 62 63
          52 54 78 76 53 66
          77 64 65 55 57 81
          79 56 69 80 67 68
          57 59 83 81 58 71
          82 69 70 72 74 98
          96 73 86 97 84 85
          74 76 100 98 75 88
          99 86 87 76 78 102
          100 77 90 101 88 89
          79 81 105 103 80 93
          104 91 92 81 83 107
          105 82 95 106 93 94
          96 98 122 120 97 110
          121 108 109 98 100 124
          122 99 112 123 110 111
          100 102 126 124 101 114
          125 112 113 103 105 129
          127 104 117 128 115 116
          105 107 131 129 106 119
          130 117 118
        </DataArray>
        <DataArray type="Int64" Name="offsets" format="ascii" RangeMin="9" RangeMax="225">
          9 18 27 36 45 54
          63 72 81 90 99 108
          117 126 135 144 153 162
          171 180 189 198 207 216
          225
        </DataArray>
        <DataArray type="UInt8" Name="types" format="ascii" RangeMin="28" RangeMax="28">
          28 28 28 28 28 28
          28 28 28 28 28 28
          28 28 28 28 28 28
          28 28 28 28 28 28
          28
        </DataArray>
      </Cells>
    </Piece>
  </UnstructuredGrid>
</VTKFile>
