<?xml version="1.0"?>
<VTKFile type="UnstructuredGrid" version="0.1" byte_order="LittleEndian" header_type="UInt32" compressor="vtkZLibDataCompressor">
  <UnstructuredGrid>
    <Piece NumberOfPoints="84" NumberOfCells="15">
      <PointData Scalars="point_type">
        <DataArray type="Int64" Name="point_type" format="ascii" RangeMin="4" RangeMax="4">
          4 4 4 4 4 4
          4 4 4 4 4 4
          4 4 4 4 4 4
          4 4 4 4 4 4
          4 4 4 4 4 4
          4 4 4 4 4 4
          4 4 4 4 4 4
          4 4 4 4 4 4
          4 4 4 4 4 4
          4 4 4 4 4 4
          4 4 4 4 4 4
          4 4 4 4 4 4
          4 4 4 4 4 4
          4 4 4 4 4 4
        </DataArray>
        <DataArray type="Float64" Name="rotation_vector" NumberOfComponents="3" format="ascii" RangeMin="0" RangeMax="2.0943951023931953">
          0 0 0 0 0 0
          0 0 0 0 0 0
          0 0 0 0 0 0
          0 0 0 1.2091995761561452 1.2091995761561452 1.2091995761561452
          1.2091995761561452 1.2091995761561452 1.2091995761561452 1.2091995761561452 1.2091995761561452 1.2091995761561452
          1.2091995761561452 1.2091995761561452 1.2091995761561452 1.2091995761561452 1.2091995761561452 1.2091995761561452
          0 0 0 0 0 0
          0 0 0 0 0 0
          0 0 0 0 0 0
          0 0 0 1.2091995761561452 1.2091995761561452 1.2091995761561452
          1.2091995761561452 1.2091995761561452 1.2091995761561452 1.2091995761561452 1.2091995761561452 1.2091995761561452
          1.2091995761561452 1.2091995761561452 1.2091995761561452 1.2091995761561452 1.2091995761561452 1.2091995761561452
          0 0 0 0 0 0
          0 0 0 0 0 0
          0 0 0 0 0 0
          0 0 0 1.2091995761561452 1.2091995761561452 1.2091995761561452
          1.2091995761561452 1.2091995761561452 1.2091995761561452 1.2091995761561452 1.2091995761561452 1.2091995761561452
          1.2091995761561452 1.2091995761561452 1.2091995761561452 1.2091995761561452 1.2091995761561452 1.2091995761561452
          0 0 0 0 0 0
          0 0 0 0 0 0
          0 0 0 0 0 0
          0 0 0 1.2091995761561452 1.2091995761561452 1.2091995761561452
          1.2091995761561452 1.2091995761561452 1.2091995761561452 1.2091995761561452 1.2091995761561452 1.2091995761561452
          1.2091995761561452 1.2091995761561452 1.2091995761561452 1.2091995761561452 1.2091995761561452 1.2091995761561452
          0 0 0 0 0 0
          0 0 0 0 0 0
          0 0 0 0 0 0
          0 0 0 1.2091995761561452 1.2091995761561452 1.2091995761561452
          1.2091995761561452 1.2091995761561452 1.2091995761561452 1.2091995761561452 1.2091995761561452 1.2091995761561452
          1.2091995761561452 1.2091995761561452 1.2091995761561452 1.2091995761561452 1.2091995761561452 1.2091995761561452
          0 0 0 0 0 0
          0 0 0 0 0 0
          0 0 0 0 0 0
          0 0 0 1.2091995761561452 1.2091995761561452 1.2091995761561452
          1.2091995761561452 1.2091995761561452 1.2091995761561452 1.2091995761561452 1.2091995761561452 1.2091995761561452
          1.2091995761561452 1.2091995761561452 1.2091995761561452 1.2091995761561452 1.2091995761561452 1.2091995761561452
          0 0 0 0 0 0
          0 0 0 0 0 0
          0 0 0 0 0 0
          0 0 0 1.2091995761561452 1.2091995761561452 1.2091995761561452
          1.2091995761561452 1.2091995761561452 1.2091995761561452 1.2091995761561452 1.2091995761561452 1.2091995761561452
          1.2091995761561452 1.2091995761561452 1.2091995761561452 1.2091995761561452 1.2091995761561452 1.2091995761561452
          <InformationKey name="L2_NORM_RANGE" location="vtkDataArray" length="2">
            <Value index="0">
              0
            </Value>
            <Value index="1">
              2.0943951024
            </Value>
          </InformationKey>
        </DataArray>
        <DataArray type="Float64" Name="time" format="ascii" RangeMin="2.5" RangeMax="9.4">
          2.5 2.5 2.5 2.5 2.5 2.5
          2.5 2.5 2.5 2.5 2.5 2.5
          3.6500000000000004 3.6500000000000004 3.6500000000000004 3.6500000000000004 3.6500000000000004 3.6500000000000004
          3.6500000000000004 3.6500000000000004 3.6500000000000004 3.6500000000000004 3.6500000000000004 3.6500000000000004
          4.800000000000001 4.800000000000001 4.800000000000001 4.800000000000001 4.800000000000001 4.800000000000001
          4.800000000000001 4.800000000000001 4.800000000000001 4.800000000000001 4.800000000000001 4.800000000000001
          5.95 5.95 5.95 5.95 5.95 5.95
          5.95 5.95 5.95 5.95 5.95 5.95
          7.1000000000000005 7.1000000000000005 7.1000000000000005 7.1000000000000005 7.1000000000000005 7.1000000000000005
          7.1000000000000005 7.1000000000000005 7.1000000000000005 7.1000000000000005 7.1000000000000005 7.1000000000000005
          8.25 8.25 8.25 8.25 8.25 8.25
          8.25 8.25 8.25 8.25 8.25 8.25
          9.4 9.4 9.4 9.4 9.4 9.4
          9.4 9.4 9.4 9.4 9.4 9.4
        </DataArray>
        <DataArray type="Int64" Name="geometry_set_0_line" format="ascii" RangeMin="0" RangeMax="1">
          0 0 0 0 0 0
          1 0 0 0 0 0
          0 0 0 0 0 0
          1 0 0 0 0 0
          0 0 0 0 0 0
          1 0 0 0 0 0
          0 0 0 0 0 0
          1 0 0 0 0 0
          0 0 0 0 0 0
          1 0 0 0 0 0
          0 0 0 0 0 0
          1 0 0 0 0 0
          0 0 0 0 0 0
          1 0 0 0 0 0
        </DataArray>
        <DataArray type="Int64" Name="geometry_set_1_line" format="ascii" RangeMin="0" RangeMax="1">
          1 0 0 0 0 0
          0 0 0 0 0 0
          1 0 0 0 0 0
          0 0 0 0 0 0
          1 0 0 0 0 0
          0 0 0 0 0 0
          1 0 0 0 0 0
          0 0 0 0 0 0
          1 0 0 0 0 0
          0 0 0 0 0 0
          1 0 0 0 0 0
          0 0 0 0 0 0
          1 0 0 0 0 0
          0 0 0 0 0 0
        </DataArray>
        <DataArray type="Int64" Name="geometry_set_2_line" format="ascii" RangeMin="0" RangeMax="1">
          0 0 0 0 0 0
          0 0 0 0 0 1
          0 0 0 0 0 0
          0 0 0 0 0 1
          0 0 0 0 0 0
          0 0 0 0 0 1
          0 0 0 0 0 0
          0 0 0 0 0 1
          0 0 0 0 0 0
          0 0 0 0 0 1
          0 0 0 0 0 0
          0 0 0 0 0 1
          0 0 0 0 0 0
          0 0 0 0 0 1
        </DataArray>
        <DataArray type="Int64" Name="geometry_set_3_line" format="ascii" RangeMin="0" RangeMax="1">
          0 0 0 0 0 0
          0 1 0 0 0 0
          0 0 0 0 0 0
          0 1 0 0 0 0
          0 0 0 0 0 0
          0 1 0 0 0 0
          0 0 0 0 0 0
          0 1 0 0 0 0
          0 0 0 0 0 0
          0 1 0 0 0 0
          0 0 0 0 0 0
          0 1 0 0 0 0
          0 0 0 0 0 0
          0 1 0 0 0 0
        </DataArray>
        <DataArray type="Int64" Name="geometry_set_4_line" format="ascii" RangeMin="0" RangeMax="1">
          0 0 0 0 0 0
          0 0 0 0 0 0
          0 0 0 0 0 0
          0 0 0 0 0 0
          0 0 0 0 0 0
          0 0 0 0 0 0
          0 0 0 0 0 0
          0 0 0 0 0 0
          0 0 0 0 0 0
          0 0 0 0 0 0
          0 0 0 0 0 0
          0 0 0 0 0 0
          1 1 1 1 1 1
          1 1 1 1 1 1
        </DataArray>
        <DataArray type="Int64" Name="geometry_set_5_line" format="ascii" RangeMin="0" RangeMax="1">
          1 0 0 0 0 0
          0 0 0 0 0 0
          1 0 0 0 0 0
          0 0 0 0 0 0
          1 0 0 0 0 0
          0 0 0 0 0 0
          1 0 0 0 0 0
          0 0 0 0 0 0
          1 0 0 0 0 0
          0 0 0 0 0 0
          1 0 0 0 0 0
          0 0 0 0 0 0
          1 0 0 0 0 0
          0 0 0 0 0 0
        </DataArray>
        <DataArray type="Int64" Name="geometry_set_6_line" format="ascii" RangeMin="0" RangeMax="1">
          0 0 0 0 0 0
          0 0 0 0 0 1
          0 0 0 0 0 0
          0 0 0 0 0 1
          0 0 0 0 0 0
          0 0 0 0 0 1
          0 0 0 0 0 0
          0 0 0 0 0 1
          0 0 0 0 0 0
          0 0 0 0 0 1
          0 0 0 0 0 0
          0 0 0 0 0 1
          0 0 0 0 0 0
          0 0 0 0 0 1
        </DataArray>
        <DataArray type="Int64" Name="geometry_set_7_line" format="ascii" RangeMin="0" RangeMax="1">
          1 1 1 1 1 1
          1 1 1 1 1 1
          0 0 0 0 0 0
          0 0 0 0 0 0
          0 0 0 0 0 0
          0 0 0 0 0 0
          0 0 0 0 0 0
          0 0 0 0 0 0
          0 0 0 0 0 0
          0 0 0 0 0 0
          0 0 0 0 0 0
          0 0 0 0 0 0
          0 0 0 0 0 0
          0 0 0 0 0 0
        </DataArray>
        <DataArray type="Int64" Name="geometry_set_8_surface" format="ascii" RangeMin="0" RangeMax="1">
          1 1 1 1 1 1
          1 0 0 0 0 0
          1 1 1 1 1 1
          1 0 0 0 0 0
          1 1 1 1 1 1
          1 0 0 0 0 0
          1 1 1 1 1 1
          1 0 0 0 0 0
          1 1 1 1 1 1
          1 0 0 0 0 0
          1 1 1 1 1 1
          1 0 0 0 0 0
          1 1 1 1 1 1
          1 0 0 0 0 0
        </DataArray>
        <DataArray type="Int64" Name="geometry_set_9_surface" format="ascii" RangeMin="0" RangeMax="1">
          0 0 0 0 0 0
          0 1 1 1 1 1
          0 0 0 0 0 0
          0 1 1 1 1 1
          0 0 0 0 0 0
          0 1 1 1 1 1
          0 0 0 0 0 0
          0 1 1 1 1 1
          0 0 0 0 0 0
          0 1 1 1 1 1
          0 0 0 0 0 0
          0 1 1 1 1 1
          0 0 0 0 0 0
          0 1 1 1 1 1
        </DataArray>
        <DataArray type="Int64" Name="geometry_set_10_surface" format="ascii" RangeMin="1" RangeMax="1">
          1 1 1 1 1 1
          1 1 1 1 1 1
          1 1 1 1 1 1
          1 1 1 1 1 1
          1 1 1 1 1 1
          1 1 1 1 1 1
          1 1 1 1 1 1
          1 1 1 1 1 1
          1 1 1 1 1 1
          1 1 1 1 1 1
          1 1 1 1 1 1
          1 1 1 1 1 1
          1 1 1 1 1 1
          1 1 1 1 1 1
        </DataArray>
      </PointData>
      <CellData Scalars="element_type_id">
        <DataArray type="Int64" Name="element_type_id" format="ascii" RangeMin="0" RangeMax="0">
          0 0 0 0 0 0
          0 0 0 0 0 0
          0 0 0
        </DataArray>
        <DataArray type="Int64" Name="material_id" format="ascii" RangeMin="-1" RangeMax="-1">
          -1 -1 -1 -1 -1 -1
          -1 -1 -1 -1 -1 -1
          -1 -1 -1
        </DataArray>
        <DataArray type="Int64" Name="beamme_id" format="ascii" RangeMin="0" RangeMax="14">
          0 1 2 3 4 5
          6 7 8 9 10 11
          12 13 14
        </DataArray>
        <DataArray type="Float64" Name="rotation_vector" NumberOfComponents="27" format="ascii" RangeMin="0" RangeMax="6.283185307179585">
          0 0 0 0 0 0
          0 0 0 0 0 0
          0 0 0 0 0 0
          0 0 0 0 0 0
          0 0 0 0 0 0
          0 0 0 0 0 0
          0 0 0 0 0 0
          0 0 0 0 0 0
          0 0 0 0 0 0
          0 0 0 0 0 0
          0 0 0 0 0 0
          0 0 0 0 0 0
          0 0 0 0 0 0
          0 0 0 1.2091995761561452 1.2091995761561452 1.2091995761561452
          1.2091995761561452 1.2091995761561452 1.2091995761561452 1.2091995761561452 1.2091995761561452 1.2091995761561452
          1.2091995761561452 1.2091995761561452 1.2091995761561452 1.2091995761561452 1.2091995761561452 1.2091995761561452
          1.2091995761561452 1.2091995761561452 1.2091995761561452 1.2091995761561452 1.2091995761561452 1.2091995761561452
          1.2091995761561452 1.2091995761561452 1.2091995761561452 1.2091995761561452 1.2091995761561452 1.2091995761561452
          1.2091995761561452 1.2091995761561452 1.2091995761561452 1.2091995761561452 1.2091995761561452 1.2091995761561452
          1.2091995761561452 1.2091995761561452 1.2091995761561452 1.2091995761561452 1.2091995761561452 1.2091995761561452
          1.2091995761561452 1.2091995761561452 1.2091995761561452 1.2091995761561452 1.2091995761561452 1.2091995761561452
          1.2091995761561452 1.2091995761561452 1.2091995761561452 1.2091995761561452 1.2091995761561452 1.2091995761561452
          1.2091995761561452 1.2091995761561452 1.2091995761561452 0 0 0
          0 0 0 0 0 0
          0 0 0 0 0 0
          0 0 0 0 0 0
          0 0 0 0 0 0
          0 0 0 0 0 0
          0 0 0 0 0 0
          0 0 0 0 0 0
          0 0 0 0 0 0
          0 0 0 0 0 0
          0 0 0 0 0 0
          0 0 0 0 0 0
          0 0 0 0 0 0
          0 0 0 0 0 0
          1.2091995761561452 1.2091995761561452 1.2091995761561452 1.2091995761561452 1.2091995761561452 1.2091995761561452
          1.2091995761561452 1.2091995761561452 1.2091995761561452 1.2091995761561452 1.2091995761561452 1.2091995761561452
          1.2091995761561452 1.2091995761561452 1.2091995761561452 1.2091995761561452 1.2091995761561452 1.2091995761561452
          1.2091995761561452 1.2091995761561452 1.2091995761561452 1.2091995761561452 1.2091995761561452 1.2091995761561452
          1.2091995761561452 1.2091995761561452 1.2091995761561452 1.2091995761561452 1.2091995761561452 1.2091995761561452
          1.2091995761561452 1.2091995761561452 1.2091995761561452 1.2091995761561452 1.2091995761561452 1.2091995761561452
          1.2091995761561452 1.2091995761561452 1.2091995761561452 1.2091995761561452 1.2091995761561452 1.2091995761561452
          1.2091995761561452 1.2091995761561452 1.2091995761561452 1.2091995761561452 1.2091995761561452 1.2091995761561452
          1.2091995761561452 1.2091995761561452 1.2091995761561452 1.2091995761561452 1.2091995761561452 1.2091995761561452
          0 0 0 0 0 0
          0 0 0 0 0 0
          0 0 0 0 0 0
          0 0 0 0 0 0
          0 0 0 0 0 0
          0 0 0 0 0 0
          0 0 0 0 0 0
          0 0 0 0 0 0
          0 0 0 0 0 0
          0 0 0 0 0 0
          0 0 0 0 0 0
          0 0 0 0 0 0
          0 0 0 0 0 0
          0 0 0 1.2091995761561452 1.2091995761561452 1.2091995761561452
          1.2091995761561452 1.2091995761561452 1.2091995761561452 1.2091995761561452 1.2091995761561452 1.2091995761561452
          1.2091995761561452 1.2091995761561452 1.2091995761561452 1.2091995761561452 1.2091995761561452 1.2091995761561452
          1.2091995761561452 1.2091995761561452 1.2091995761561452 1.2091995761561452 1.2091995761561452 1.2091995761561452
          1.2091995761561452 1.2091995761561452 1.2091995761561452 1.2091995761561452 1.2091995761561452 1.2091995761561452
          1.2091995761561452 1.2091995761561452 1.2091995761561452 1.2091995761561452 1.2091995761561452 1.2091995761561452
          1.2091995761561452 1.2091995761561452 1.2091995761561452 1.2091995761561452 1.2091995761561452 1.2091995761561452
          1.2091995761561452 1.2091995761561452 1.2091995761561452 1.2091995761561452 1.2091995761561452 1.2091995761561452
          1.2091995761561452 1.2091995761561452 1.2091995761561452 1.2091995761561452 1.2091995761561452 1.2091995761561452
          1.2091995761561452 1.2091995761561452 1.2091995761561452
          <InformationKey name="L2_NORM_RANGE" location="vtkDataArray" length="2">
            <Value index="0">
              0
            </Value>
            <Value index="1">
              6.2831853072
            </Value>
          </InformationKey>
        </DataArray>
      </CellData>
      <Points>
        <DataArray type="Float64" Name="Points" NumberOfComponents="3" format="ascii" RangeMin="0" RangeMax="1.4142135623730951">
          0 0 0 0.16666666666666666 0 0
          0.3333333333333333 0 0 0.5 0 0
          0.6666666666666666 0 0 0.8333333333333333 0 0
          1 0 0 1 0 0
          1 0.25 0 1 0.5 0
          1 0.75 0 1 1 0
          0 0 0 0.16666666666666666 0 0
          0.3333333333333333 0 0 0.5 0 0
          0.6666666666666666 0 0 0.8333333333333333 0 0
          1 0 0 1 0 0
          1 0.25 0 1 0.5 0
          1 0.75 0 1 1 0
          0 0 0 0.16666666666666666 0 0
          0.3333333333333333 0 0 0.5 0 0
          0.6666666666666666 0 0 0.8333333333333333 0 0
          1 0 0 1 0 0
          1 0.25 0 1 0.5 0
          1 0.75 0 1 1 0
          0 0 0 0.16666666666666666 0 0
          0.3333333333333333 0 0 0.5 0 0
          0.6666666666666666 0 0 0.8333333333333333 0 0
          1 0 0 1 0 0
          1 0.25 0 1 0.5 0
          1 0.75 0 1 1 0
          0 0 0 0.16666666666666666 0 0
          0.3333333333333333 0 0 0.5 0 0
          0.6666666666666666 0 0 0.8333333333333333 0 0
          1 0 0 1 0 0
          1 0.25 0 1 0.5 0
          1 0.75 0 1 1 0
          0 0 0 0.16666666666666666 0 0
          0.3333333333333333 0 0 0.5 0 0
          0.6666666666666666 0 0 0.8333333333333333 0 0
          1 0 0 1 0 0
          1 0.25 0 1 0.5 0
          1 0.75 0 1 1 0
          0 0 0 0.16666666666666666 0 0
          0.3333333333333333 0 0 0.5 0 0
          0.6666666666666666 0 0 0.8333333333333333 0 0
          1 0 0 1 0 0
          1 0.25 0 1 0.5 0
          1 0.75 0 1 1 0
          <InformationKey name="L2_NORM_RANGE" location="vtkDataArray" length="2">
            <Value index="0">
              0
            </Value>
            <Value index="1">
              1.4142135624
            </Value>
          </InformationKey>
        </DataArray>
      </Points>
      <Cells>
        <DataArray type="Int64" Name="connectivity" format="ascii" RangeMin="0" RangeMax="83">
          0 2 26 24 1 14
          25 12 13 2 4 28
          26 3 16 27 14 15
          4 6 30 28 5 18
          29 16 17 7 9 33
          31 8 21 32 19 20
          9 11 35 33 10 23
          34 21 22 24 26 50
          48 25 38 49 36 37
          26 28 52 50 27 40
          51 38 39 28 30 54
          52 29 42 53 40 41
          31 33 57 55 32 45
          56 43 44 33 35 59
          57 34 47 58 45 46
          48 50 74 72 49 62
          73 60 61 50 52 76
          74 51 64 75 62 63
          52 54 78 76 53 66
          77 64 65 55 57 81
          79 56 69 80 67 68
          57 59 83 81 58 71
          82 69 70
        </DataArray>
        <DataArray type="Int64" Name="offsets" format="ascii" RangeMin="9" RangeMax="135">
          9 18 27 36 45 54
          63 72 81 90 99 108
          117 126 135
        </DataArray>
        <DataArray type="UInt8" Name="types" format="ascii" RangeMin="28" RangeMax="28">
          28 28 28 28 28 28
          28 28 28 28 28 28
          28 28 28
        </DataArray>
      </Cells>
    </Piece>
  </UnstructuredGrid>
</VTKFile>
