<?xml version="1.0"?>
<VTKFile type="UnstructuredGrid" version="0.1" byte_order="LittleEndian" header_type="UInt32" compressor="vtkZLibDataCompressor">
  <UnstructuredGrid>
    <Piece NumberOfPoints="91" NumberOfCells="18">
      <PointData Scalars="point_type">
        <DataArray type="Int64" Name="point_type" format="ascii" RangeMin="4" RangeMax="4">
          4 4 4 4 4 4
          4 4 4 4 4 4
          4 4 4 4 4 4
          4 4 4 4 4 4
          4 4 4 4 4 4
          4 4 4 4 4 4
          4 4 4 4 4 4
          4 4 4 4 4 4
          4 4 4 4 4 4
          4 4 4 4 4 4
          4 4 4 4 4 4
          4 4 4 4 4 4
          4 4 4 4 4 4
          4 4 4 4 4 4
          4 4 4 4 4 4
          4
        </DataArray>
        <DataArray type="Float64" Name="rotation_vector" NumberOfComponents="3" format="ascii" RangeMin="0" RangeMax="2.0943951023931953">
          0 0 0 0 0 0
          0 0 0 0 0 0
          0 0 0 0 0 0
          0 0 0 1.2091995761561452 1.2091995761561452 1.2091995761561452
          1.2091995761561452 1.2091995761561452 1.2091995761561452 1.2091995761561452 1.2091995761561452 1.2091995761561452
          1.2091995761561452 1.2091995761561452 1.2091995761561452 1.4821898202742554 -0.6139431255689369 -0.6139431255689369
          1.4821898202742554 -0.6139431255689369 -0.6139431255689369 0 0 0
          0 0 0 0 0 0
          0 0 0 0 0 0
          0 0 0 0 0 0
          1.2091995761561452 1.2091995761561452 1.2091995761561452 1.2091995761561452 1.2091995761561452 1.2091995761561452
          1.2091995761561452 1.2091995761561452 1.2091995761561452 1.2091995761561452 1.2091995761561452 1.2091995761561452
          1.4821898202742554 -0.6139431255689369 -0.6139431255689369 1.4821898202742554 -0.6139431255689369 -0.6139431255689369
          0 0 0 0 0 0
          0 0 0 0 0 0
          0 0 0 0 0 0
          0 0 0 1.2091995761561452 1.2091995761561452 1.2091995761561452
          1.2091995761561452 1.2091995761561452 1.2091995761561452 1.2091995761561452 1.2091995761561452 1.2091995761561452
          1.2091995761561452 1.2091995761561452 1.2091995761561452 1.4821898202742554 -0.6139431255689369 -0.6139431255689369
          1.4821898202742554 -0.6139431255689369 -0.6139431255689369 0 0 0
          0 0 0 0 0 0
          0 0 0 0 0 0
          0 0 0 0 0 0
          1.2091995761561452 1.2091995761561452 1.2091995761561452 1.2091995761561452 1.2091995761561452 1.2091995761561452
          1.2091995761561452 1.2091995761561452 1.2091995761561452 1.2091995761561452 1.2091995761561452 1.2091995761561452
          1.4821898202742554 -0.6139431255689369 -0.6139431255689369 1.4821898202742554 -0.6139431255689369 -0.6139431255689369
          0 0 0 0 0 0
          0 0 0 0 0 0
          0 0 0 0 0 0
          0 0 0 1.2091995761561452 1.2091995761561452 1.2091995761561452
          1.2091995761561452 1.2091995761561452 1.2091995761561452 1.2091995761561452 1.2091995761561452 1.2091995761561452
          1.2091995761561452 1.2091995761561452 1.2091995761561452 1.4821898202742554 -0.6139431255689369 -0.6139431255689369
          1.4821898202742554 -0.6139431255689369 -0.6139431255689369 0 0 0
          0 0 0 0 0 0
          0 0 0 0 0 0
          0 0 0 0 0 0
          1.2091995761561452 1.2091995761561452 1.2091995761561452 1.2091995761561452 1.2091995761561452 1.2091995761561452
          1.2091995761561452 1.2091995761561452 1.2091995761561452 1.2091995761561452 1.2091995761561452 1.2091995761561452
          1.4821898202742554 -0.6139431255689369 -0.6139431255689369 1.4821898202742554 -0.6139431255689369 -0.6139431255689369
          0 0 0 0 0 0
          0 0 0 0 0 0
          0 0 0 0 0 0
          0 0 0 1.2091995761561452 1.2091995761561452 1.2091995761561452
          1.2091995761561452 1.2091995761561452 1.2091995761561452 1.2091995761561452 1.2091995761561452 1.2091995761561452
          1.2091995761561452 1.2091995761561452 1.2091995761561452 1.4821898202742554 -0.6139431255689369 -0.6139431255689369
          1.4821898202742554 -0.6139431255689369 -0.6139431255689369
          <InformationKey name="L2_NORM_RANGE" location="vtkDataArray" length="2">
            <Value index="0">
              0
            </Value>
            <Value index="1">
              2.0943951024
            </Value>
          </InformationKey>
        </DataArray>
        <DataArray type="Float64" Name="time" format="ascii" RangeMin="2.5" RangeMax="9.4">
          2.5 2.5 2.5 2.5 2.5 2.5
          2.5 2.5 2.5 2.5 2.5 2.5
          2.5 3.6500000000000004 3.6500000000000004 3.6500000000000004 3.6500000000000004 3.6500000000000004
          3.6500000000000004 3.6500000000000004 3.6500000000000004 3.6500000000000004 3.6500000000000004 3.6500000000000004
          3.6500000000000004 3.6500000000000004 4.800000000000001 4.800000000000001 4.800000000000001 4.800000000000001
          4.800000000000001 4.800000000000001 4.800000000000001 4.800000000000001 4.800000000000001 4.800000000000001
          4.800000000000001 4.800000000000001 4.800000000000001 5.95 5.95 5.95
          5.95 5.95 5.95 5.95 5.95 5.95
          5.95 5.95 5.95 5.95 7.1000000000000005 7.1000000000000005
          7.1000000000000005 7.1000000000000005 7.1000000000000005 7.1000000000000005 7.1000000000000005 7.1000000000000005
          7.1000000000000005 7.1000000000000005 7.1000000000000005 7.1000000000000005 7.1000000000000005 8.25
          8.25 8.25 8.25 8.25 8.25 8.25
          8.25 8.25 8.25 8.25 8.25 8.25
          9.4 9.4 9.4 9.4 9.4 9.4
          9.4 9.4 9.4 9.4 9.4 9.4
          9.4
        </DataArray>
        <DataArray type="Int64" Name="geometry_set_0_point" format="ascii" RangeMin="0" RangeMax="1">
          0 0 0 0 0 0
          1 0 0 0 0 0
          0 0 0 0 0 0
          0 0 0 0 0 0
          0 0 0 0 0 0
          0 0 0 0 0 0
          0 0 0 0 0 0
          0 0 0 0 0 0
          0 0 0 0 0 0
          0 0 0 0 0 0
          0 0 0 0 0 0
          0 0 0 0 0 0
          0 0 0 0 0 0
          0 0 0 0 0 0
          0 0 0 0 0 0
          0
        </DataArray>
        <DataArray type="Int64" Name="geometry_set_1_point" format="ascii" RangeMin="0" RangeMax="1">
          0 0 0 0 0 0
          0 0 0 0 0 0
          0 0 0 0 0 0
          0 1 0 0 0 0
          0 0 0 0 0 0
          0 0 0 0 0 0
          0 0 0 0 0 0
          0 0 0 0 0 0
          0 0 0 0 0 0
          0 0 0 0 0 0
          0 0 0 0 0 0
          0 0 0 0 0 0
          0 0 0 0 0 0
          0 0 0 0 0 0
          0 0 0 0 0 0
          0
        </DataArray>
        <DataArray type="Int64" Name="geometry_set_2_point" format="ascii" RangeMin="0" RangeMax="1">
          0 0 0 0 0 0
          0 0 0 0 0 0
          0 0 0 0 0 0
          0 0 0 0 0 0
          0 0 0 0 0 0
          0 0 1 0 0 0
          0 0 0 0 0 0
          0 0 0 0 0 0
          0 0 0 0 0 0
          0 0 0 0 0 0
          0 0 0 0 0 0
          0 0 0 0 0 0
          0 0 0 0 0 0
          0 0 0 0 0 0
          0 0 0 0 0 0
          0
        </DataArray>
        <DataArray type="Int64" Name="geometry_set_3_point" format="ascii" RangeMin="0" RangeMax="1">
          0 0 0 0 0 0
          0 0 0 0 0 0
          0 0 0 0 0 0
          0 0 0 0 0 0
          0 0 0 0 0 0
          0 0 0 0 0 0
          0 0 0 0 0 0
          0 0 0 1 0 0
          0 0 0 0 0 0
          0 0 0 0 0 0
          0 0 0 0 0 0
          0 0 0 0 0 0
          0 0 0 0 0 0
          0 0 0 0 0 0
          0 0 0 0 0 0
          0
        </DataArray>
        <DataArray type="Int64" Name="geometry_set_4_point" format="ascii" RangeMin="0" RangeMax="1">
          0 0 0 0 0 0
          0 0 0 0 0 0
          0 0 0 0 0 0
          0 0 0 0 0 0
          0 0 0 0 0 0
          0 0 0 0 0 0
          0 0 0 0 0 0
          0 0 0 0 0 0
          0 0 0 0 0 0
          0 0 0 0 1 0
          0 0 0 0 0 0
          0 0 0 0 0 0
          0 0 0 0 0 0
          0 0 0 0 0 0
          0 0 0 0 0 0
          0
        </DataArray>
        <DataArray type="Int64" Name="geometry_set_5_point" format="ascii" RangeMin="0" RangeMax="1">
          0 0 0 0 0 0
          0 0 0 0 0 0
          0 0 0 0 0 0
          0 0 0 0 0 0
          0 0 0 0 0 0
          0 0 0 0 0 0
          0 0 0 0 0 0
          0 0 0 0 0 0
          0 0 0 0 0 0
          0 0 0 0 0 0
          0 0 0 0 0 0
          0 0 0 0 0 1
          0 0 0 0 0 0
          0 0 0 0 0 0
          0 0 0 0 0 0
          0
        </DataArray>
        <DataArray type="Int64" Name="geometry_set_6_point" format="ascii" RangeMin="0" RangeMax="1">
          0 0 0 0 0 0
          0 0 0 0 0 0
          0 0 0 0 0 0
          0 0 0 0 0 0
          0 0 0 0 0 0
          0 0 0 0 0 0
          0 0 0 0 0 0
          0 0 0 0 0 0
          0 0 0 0 0 0
          0 0 0 0 0 0
          0 0 0 0 0 0
          0 0 0 0 0 0
          0 0 0 0 0 0
          0 0 0 0 0 0
          1 0 0 0 0 0
          0
        </DataArray>
        <DataArray type="Int64" Name="geometry_set_7_line" format="ascii" RangeMin="0" RangeMax="1">
          0 0 0 0 0 0
          1 0 0 0 0 0
          0 0 0 0 0 0
          0 1 0 0 0 0
          0 0 0 0 0 0
          0 0 1 0 0 0
          0 0 0 0 0 0
          0 0 0 1 0 0
          0 0 0 0 0 0
          0 0 0 0 1 0
          0 0 0 0 0 0
          0 0 0 0 0 1
          0 0 0 0 0 0
          0 0 0 0 0 0
          1 0 0 0 0 0
          0
        </DataArray>
        <DataArray type="Int64" Name="geometry_set_8_line" format="ascii" RangeMin="0" RangeMax="1">
          1 0 0 0 0 0
          0 0 0 0 0 0
          0 1 0 0 0 0
          0 0 0 0 0 0
          0 0 1 0 0 0
          0 0 0 0 0 0
          0 0 0 1 0 0
          0 0 0 0 0 0
          0 0 0 0 1 0
          0 0 0 0 0 0
          0 0 0 0 0 1
          0 0 0 0 0 0
          0 0 0 0 0 0
          1 0 0 0 0 0
          0 0 0 0 0 0
          0
        </DataArray>
        <DataArray type="Int64" Name="geometry_set_9_line" format="ascii" RangeMin="0" RangeMax="1">
          0 0 0 0 0 0
          0 0 0 0 1 0
          0 0 0 0 0 0
          0 0 0 0 0 1
          0 0 0 0 0 0
          0 0 0 0 0 0
          1 0 0 0 0 0
          0 0 0 0 0 0
          0 1 0 0 0 0
          0 0 0 0 0 0
          0 0 1 0 0 0
          0 0 0 0 0 0
          0 0 0 1 0 0
          0 0 0 0 0 0
          0 0 0 0 1 0
          0
        </DataArray>
        <DataArray type="Int64" Name="geometry_set_10_line" format="ascii" RangeMin="0" RangeMax="1">
          0 0 0 0 0 0
          1 0 0 0 0 0
          0 0 0 0 0 0
          0 1 0 0 0 0
          0 0 0 0 0 0
          0 0 1 0 0 0
          0 0 0 0 0 0
          0 0 0 1 0 0
          0 0 0 0 0 0
          0 0 0 0 1 0
          0 0 0 0 0 0
          0 0 0 0 0 1
          0 0 0 0 0 0
          0 0 0 0 0 0
          1 0 0 0 0 0
          0
        </DataArray>
        <DataArray type="Int64" Name="geometry_set_11_line" format="ascii" RangeMin="0" RangeMax="1">
          0 0 0 0 0 0
          0 0 0 0 0 0
          1 0 0 0 0 0
          0 0 0 0 0 0
          0 1 0 0 0 0
          0 0 0 0 0 0
          0 0 1 0 0 0
          0 0 0 0 0 0
          0 0 0 1 0 0
          0 0 0 0 0 0
          0 0 0 0 1 0
          0 0 0 0 0 0
          0 0 0 0 0 1
          0 0 0 0 0 0
          0 0 0 0 0 0
          1
        </DataArray>
        <DataArray type="Int64" Name="geometry_set_12_line" format="ascii" RangeMin="0" RangeMax="1">
          0 0 0 0 0 0
          1 0 0 0 0 0
          0 0 0 0 0 0
          0 1 0 0 0 0
          0 0 0 0 0 0
          0 0 1 0 0 0
          0 0 0 0 0 0
          0 0 0 1 0 0
          0 0 0 0 0 0
          0 0 0 0 1 0
          0 0 0 0 0 0
          0 0 0 0 0 1
          0 0 0 0 0 0
          0 0 0 0 0 0
          1 0 0 0 0 0
          0
        </DataArray>
        <DataArray type="Int64" Name="geometry_set_13_line" format="ascii" RangeMin="0" RangeMax="1">
          0 0 0 0 0 0
          0 0 0 0 0 0
          0 0 0 0 0 0
          0 0 0 0 0 0
          0 0 0 0 0 0
          0 0 0 0 0 0
          0 0 0 0 0 0
          0 0 0 0 0 0
          0 0 0 0 0 0
          0 0 0 0 0 0
          0 0 0 0 0 0
          0 0 0 0 0 0
          0 0 0 0 0 0
          1 1 1 1 1 1
          1 1 1 1 1 1
          1
        </DataArray>
        <DataArray type="Int64" Name="geometry_set_14_line" format="ascii" RangeMin="0" RangeMax="1">
          1 1 1 1 1 1
          1 1 1 1 1 1
          1 0 0 0 0 0
          0 0 0 0 0 0
          0 0 0 0 0 0
          0 0 0 0 0 0
          0 0 0 0 0 0
          0 0 0 0 0 0
          0 0 0 0 0 0
          0 0 0 0 0 0
          0 0 0 0 0 0
          0 0 0 0 0 0
          0 0 0 0 0 0
          0 0 0 0 0 0
          0 0 0 0 0 0
          0
        </DataArray>
        <DataArray type="Int64" Name="geometry_set_15_surface" format="ascii" RangeMin="0" RangeMax="1">
          1 1 1 1 1 1
          1 0 0 0 0 0
          0 1 1 1 1 1
          1 1 0 0 0 0
          0 0 1 1 1 1
          1 1 1 0 0 0
          0 0 0 1 1 1
          1 1 1 1 0 0
          0 0 0 0 1 1
          1 1 1 1 1 0
          0 0 0 0 0 1
          1 1 1 1 1 1
          0 0 0 0 0 0
          1 1 1 1 1 1
          1 0 0 0 0 0
          0
        </DataArray>
        <DataArray type="Int64" Name="geometry_set_16_surface" format="ascii" RangeMin="0" RangeMax="1">
          0 0 0 0 0 0
          1 1 1 1 1 0
          0 0 0 0 0 0
          0 1 1 1 1 1
          0 0 0 0 0 0
          0 0 1 1 1 1
          1 0 0 0 0 0
          0 0 0 1 1 1
          1 1 0 0 0 0
          0 0 0 0 1 1
          1 1 1 0 0 0
          0 0 0 0 0 1
          1 1 1 1 0 0
          0 0 0 0 0 0
          1 1 1 1 1 0
          0
        </DataArray>
        <DataArray type="Int64" Name="geometry_set_17_surface" format="ascii" RangeMin="0" RangeMax="1">
          0 0 0 0 0 0
          1 0 0 0 0 1
          1 0 0 0 0 0
          0 1 0 0 0 0
          1 1 0 0 0 0
          0 0 1 0 0 0
          0 1 1 0 0 0
          0 0 0 1 0 0
          0 0 1 1 0 0
          0 0 0 0 1 0
          0 0 0 1 1 0
          0 0 0 0 0 1
          0 0 0 0 1 1
          0 0 0 0 0 0
          1 0 0 0 0 1
          1
        </DataArray>
        <DataArray type="Int64" Name="geometry_set_18_surface" format="ascii" RangeMin="1" RangeMax="1">
          1 1 1 1 1 1
          1 1 1 1 1 1
          1 1 1 1 1 1
          1 1 1 1 1 1
          1 1 1 1 1 1
          1 1 1 1 1 1
          1 1 1 1 1 1
          1 1 1 1 1 1
          1 1 1 1 1 1
          1 1 1 1 1 1
          1 1 1 1 1 1
          1 1 1 1 1 1
          1 1 1 1 1 1
          1 1 1 1 1 1
          1 1 1 1 1 1
          1
        </DataArray>
      </PointData>
      <CellData Scalars="element_type_id">
        <DataArray type="Int64" Name="element_type_id" format="ascii" RangeMin="0" RangeMax="0">
          0 0 0 0 0 0
          0 0 0 0 0 0
          0 0 0 0 0 0
        </DataArray>
        <DataArray type="Int64" Name="material_id" format="ascii" RangeMin="-1" RangeMax="-1">
          -1 -1 -1 -1 -1 -1
          -1 -1 -1 -1 -1 -1
          -1 -1 -1 -1 -1 -1
        </DataArray>
        <DataArray type="Int64" Name="beamme_id" format="ascii" RangeMin="0" RangeMax="17">
          0 1 2 3 4 5
          6 7 8 9 10 11
          12 13 14 15 16 17
        </DataArray>
        <DataArray type="Int64" Name="geometry_set_15_surface" format="ascii" RangeMin="0" RangeMax="1">
          1 1 1 0 0 0
          1 1 1 0 0 0
          1 1 1 0 0 0
        </DataArray>
        <DataArray type="Int64" Name="geometry_set_16_surface" format="ascii" RangeMin="0" RangeMax="1">
          0 0 0 1 1 0
          0 0 0 1 1 0
          0 0 0 1 1 0
        </DataArray>
        <DataArray type="Int64" Name="geometry_set_17_surface" format="ascii" RangeMin="0" RangeMax="1">
          0 0 0 0 0 1
          0 0 0 0 0 1
          0 0 0 0 0 1
        </DataArray>
        <DataArray type="Float64" Name="rotation_vector" NumberOfComponents="27" format="ascii" RangeMin="0" RangeMax="6.283185307179585">
          0 0 0 0 0 0
          0 0 0 0 0 0
          0 0 0 0 0 0
          0 0 0 0 0 0
          0 0 0 0 0 0
          0 0 0 0 0 0
          0 0 0 0 0 0
          0 0 0 0 0 0
          0 0 0 0 0 0
          0 0 0 0 0 0
          0 0 0 0 0 0
          0 0 0 0 0 0
          0 0 0 0 0 0
          0 0 0 1.2091995761561452 1.2091995761561452 1.2091995761561452
          1.2091995761561452 1.2091995761561452 1.2091995761561452 1.2091995761561452 1.2091995761561452 1.2091995761561452
          1.2091995761561452 1.2091995761561452 1.2091995761561452 1.2091995761561452 1.2091995761561452 1.2091995761561452
          1.2091995761561452 1.2091995761561452 1.2091995761561452 1.2091995761561452 1.2091995761561452 1.2091995761561452
          1.2091995761561452 1.2091995761561452 1.2091995761561452 1.2091995761561452 1.2091995761561452 1.2091995761561452
          1.2091995761561452 1.2091995761561452 1.2091995761561452 1.2091995761561452 1.2091995761561452 1.2091995761561452
          1.2091995761561452 1.2091995761561452 1.2091995761561452 1.2091995761561452 1.2091995761561452 1.2091995761561452
          1.2091995761561452 1.2091995761561452 1.2091995761561452 1.2091995761561452 1.2091995761561452 1.2091995761561452
          1.2091995761561452 1.2091995761561452 1.2091995761561452 1.2091995761561452 1.2091995761561452 1.2091995761561452
          1.2091995761561452 1.2091995761561452 1.2091995761561452 1.4821898202742554 -0.6139431255689369 -0.6139431255689369
          1.4821898202742554 -0.6139431255689369 -0.6139431255689369 1.4821898202742554 -0.6139431255689369 -0.6139431255689369
          1.4821898202742554 -0.6139431255689369 -0.6139431255689369 1.4821898202742554 -0.6139431255689369 -0.6139431255689369
          1.4821898202742554 -0.6139431255689369 -0.6139431255689369 1.4821898202742554 -0.6139431255689369 -0.6139431255689369
          1.4821898202742554 -0.6139431255689369 -0.6139431255689369 1.4821898202742554 -0.6139431255689369 -0.6139431255689369
          0 0 0 0 0 0
          0 0 0 0 0 0
          0 0 0 0 0 0
          0 0 0 0 0 0
          0 0 0 0 0 0
          0 0 0 0 0 0
          0 0 0 0 0 0
          0 0 0 0 0 0
          0 0 0 0 0 0
          0 0 0 0 0 0
          0 0 0 0 0 0
          0 0 0 0 0 0
          0 0 0 0 0 0
          0 0 0 1.2091995761561452 1.2091995761561452 1.2091995761561452
          1.2091995761561452 1.2091995761561452 1.2091995761561452 1.2091995761561452 1.2091995761561452 1.2091995761561452
          1.2091995761561452 1.2091995761561452 1.2091995761561452 1.2091995761561452 1.2091995761561452 1.2091995761561452
          1.2091995761561452 1.2091995761561452 1.2091995761561452 1.2091995761561452 1.2091995761561452 1.2091995761561452
          1.2091995761561452 1.2091995761561452 1.2091995761561452 1.2091995761561452 1.2091995761561452 1.2091995761561452
          1.2091995761561452 1.2091995761561452 1.2091995761561452 1.2091995761561452 1.2091995761561452 1.2091995761561452
          1.2091995761561452 1.2091995761561452 1.2091995761561452 1.2091995761561452 1.2091995761561452 1.2091995761561452
          1.2091995761561452 1.2091995761561452 1.2091995761561452 1.2091995761561452 1.2091995761561452 1.2091995761561452
          1.2091995761561452 1.2091995761561452 1.2091995761561452 1.2091995761561452 1.2091995761561452 1.2091995761561452
          1.2091995761561452 1.2091995761561452 1.2091995761561452 1.4821898202742554 -0.6139431255689369 -0.6139431255689369
          1.4821898202742554 -0.6139431255689369 -0.6139431255689369 1.4821898202742554 -0.6139431255689369 -0.6139431255689369
          1.4821898202742554 -0.6139431255689369 -0.6139431255689369 1.4821898202742554 -0.6139431255689369 -0.6139431255689369
          1.4821898202742554 -0.6139431255689369 -0.6139431255689369 1.4821898202742554 -0.6139431255689369 -0.6139431255689369
          1.4821898202742554 -0.6139431255689369 -0.6139431255689369 1.4821898202742554 -0.6139431255689369 -0.6139431255689369
          0 0 0 0 0 0
          0 0 0 0 0 0
          0 0 0 0 0 0
          0 0 0 0 0 0
          0 0 0 0 0 0
          0 0 0 0 0 0
          0 0 0 0 0 0
          0 0 0 0 0 0
          0 0 0 0 0 0
          0 0 0 0 0 0
          0 0 0 0 0 0
          0 0 0 0 0 0
          0 0 0 0 0 0
          0 0 0 1.2091995761561452 1.2091995761561452 1.2091995761561452
          1.2091995761561452 1.2091995761561452 1.2091995761561452 1.2091995761561452 1.2091995761561452 1.2091995761561452
          1.2091995761561452 1.2091995761561452 1.2091995761561452 1.2091995761561452 1.2091995761561452 1.2091995761561452
          1.2091995761561452 1.2091995761561452 1.2091995761561452 1.2091995761561452 1.2091995761561452 1.2091995761561452
          1.2091995761561452 1.2091995761561452 1.2091995761561452 1.2091995761561452 1.2091995761561452 1.2091995761561452
          1.2091995761561452 1.2091995761561452 1.2091995761561452 1.2091995761561452 1.2091995761561452 1.2091995761561452
          1.2091995761561452 1.2091995761561452 1.2091995761561452 1.2091995761561452 1.2091995761561452 1.2091995761561452
          1.2091995761561452 1.2091995761561452 1.2091995761561452 1.2091995761561452 1.2091995761561452 1.2091995761561452
          1.2091995761561452 1.2091995761561452 1.2091995761561452 1.2091995761561452 1.2091995761561452 1.2091995761561452
          1.2091995761561452 1.2091995761561452 1.2091995761561452 1.4821898202742554 -0.6139431255689369 -0.6139431255689369
          1.4821898202742554 -0.6139431255689369 -0.6139431255689369 1.4821898202742554 -0.6139431255689369 -0.6139431255689369
          1.4821898202742554 -0.6139431255689369 -0.6139431255689369 1.4821898202742554 -0.6139431255689369 -0.6139431255689369
          1.4821898202742554 -0.6139431255689369 -0.6139431255689369 1.4821898202742554 -0.6139431255689369 -0.6139431255689369
          1.4821898202742554 -0.6139431255689369 -0.6139431255689369 1.4821898202742554 -0.6139431255689369 -0.6139431255689369
          <InformationKey name="L2_NORM_RANGE" location="vtkDataArray" length="2">
            <Value index="0">
              0
            </Value>
            <Value index="1">
              6.2831853072
            </Value>
          </InformationKey>
        </DataArray>
      </CellData>
      <Points>
        <DataArray type="Float64" Name="Points" NumberOfComponents="3" format="ascii" RangeMin="0" RangeMax="2.23606797749979">
          0 0 0 0.16666666666666666 0 0
          0.3333333333333333 0 0 0.5 0 0
          0.6666666666666666 0 0 0.8333333333333333 0 0
          1 0 0 1 0.25 0
          1 0.5 0 1 0.75 0
          1 1 0 1.5 -0.5 0
          2 -1 0 0 0 0
          0.16666666666666666 0 0 0.3333333333333333 0 0
          0.5 0 0 0.6666666666666666 0 0
          0.8333333333333333 0 0 1 0 0
          1 0.25 0 1 0.5 0
          1 0.75 0 1 1 0
          1.5 -0.5 0 2 -1 0
          0 0 0 0.16666666666666666 0 0
          0.3333333333333333 0 0 0.5 0 0
          0.6666666666666666 0 0 0.8333333333333333 0 0
          1 0 0 1 0.25 0
          1 0.5 0 1 0.75 0
          1 1 0 1.5 -0.5 0
          2 -1 0 0 0 0
          0.16666666666666666 0 0 0.3333333333333333 0 0
          0.5 0 0 0.6666666666666666 0 0
          0.8333333333333333 0 0 1 0 0
          1 0.25 0 1 0.5 0
          1 0.75 0 1 1 0
          1.5 -0.5 0 2 -1 0
          0 0 0 0.16666666666666666 0 0
          0.3333333333333333 0 0 0.5 0 0
          0.6666666666666666 0 0 0.8333333333333333 0 0
          1 0 0 1 0.25 0
          1 0.5 0 1 0.75 0
          1 1 0 1.5 -0.5 0
          2 -1 0 0 0 0
          0.16666666666666666 0 0 0.3333333333333333 0 0
          0.5 0 0 0.6666666666666666 0 0
          0.8333333333333333 0 0 1 0 0
          1 0.25 0 1 0.5 0
          1 0.75 0 1 1 0
          1.5 -0.5 0 2 -1 0
          0 0 0 0.16666666666666666 0 0
          0.3333333333333333 0 0 0.5 0 0
          0.6666666666666666 0 0 0.8333333333333333 0 0
          1 0 0 1 0.25 0
          1 0.5 0 1 0.75 0
          1 1 0 1.5 -0.5 0
          2 -1 0
          <InformationKey name="L2_NORM_RANGE" location="vtkDataArray" length="2">
            <Value index="0">
              0
            </Value>
            <Value index="1">
              2.2360679775
            </Value>
          </InformationKey>
        </DataArray>
      </Points>
      <Cells>
        <DataArray type="Int64" Name="connectivity" format="ascii" RangeMin="0" RangeMax="90">
          0 2 28 26 1 15
          27 13 14 2 4 30
          28 3 17 29 15 16
          4 6 32 30 5 19
          31 17 18 6 8 34
          32 7 21 33 19 20
          8 10 36 34 9 23
          35 21 22 6 12 38
          32 11 25 37 19 24
          26 28 54 52 27 41
          53 39 40 28 30 56
          54 29 43 55 41 42
          30 32 58 56 31 45
          57 43 44 32 34 60
          58 33 47 59 45 46
          34 36 62 60 35 49
          61 47 48 32 38 64
          58 37 51 63 45 50
          52 54 80 78 53 67
          79 65 66 54 56 82
          80 55 69 81 67 68
          56 58 84 82 57 71
          83 69 70 58 60 86
          84 59 73 85 71 72
          60 62 88 86 61 75
          87 73 74 58 64 90
          84 63 77 89 71 76
        </DataArray>
        <DataArray type="Int64" Name="offsets" format="ascii" RangeMin="9" RangeMax="162">
          9 18 27 36 45 54
          63 72 81 90 99 108
          117 126 135 144 153 162
        </DataArray>
        <DataArray type="UInt8" Name="types" format="ascii" RangeMin="28" RangeMax="28">
          28 28 28 28 28 28
          28 28 28 28 28 28
          28 28 28 28 28 28
        </DataArray>
      </Cells>
    </Piece>
  </UnstructuredGrid>
</VTKFile>
