<?xml version="1.0"?>
<VTKFile type="UnstructuredGrid" version="0.1" byte_order="LittleEndian" header_type="UInt32" compressor="vtkZLibDataCompressor">
  <UnstructuredGrid>
    <Piece NumberOfPoints="105" NumberOfCells="18">
      <PointData Scalars="point_type">
        <DataArray type="Int64" Name="point_type" format="ascii" RangeMin="4" RangeMax="4">
          4 4 4 4 4 4
          4 4 4 4 4 4
          4 4 4 4 4 4
          4 4 4 4 4 4
          4 4 4 4 4 4
          4 4 4 4 4 4
          4 4 4 4 4 4
          4 4 4 4 4 4
          4 4 4 4 4 4
          4 4 4 4 4 4
          4 4 4 4 4 4
          4 4 4 4 4 4
          4 4 4 4 4 4
          4 4 4 4 4 4
          4 4 4 4 4 4
          4 4 4 4 4 4
          4 4 4 4 4 4
          4 4 4
        </DataArray>
        <DataArray type="Float64" Name="rotation_vector" NumberOfComponents="3" format="ascii" RangeMin="0" RangeMax="2.0943951023931953">
          0 0 0 0 0 0
          0 0 0 0 0 0
          0 0 0 0 0 0
          0 0 0 1.2091995761561452 1.2091995761561452 1.2091995761561452
          1.2091995761561452 1.2091995761561452 1.2091995761561452 1.2091995761561452 1.2091995761561452 1.2091995761561452
          1.2091995761561452 1.2091995761561452 1.2091995761561452 1.2091995761561452 1.2091995761561452 1.2091995761561452
          1.4821898202742554 -0.6139431255689369 -0.6139431255689369 1.4821898202742554 -0.6139431255689369 -0.6139431255689369
          1.4821898202742554 -0.6139431255689369 -0.6139431255689369 0 0 0
          0 0 0 0 0 0
          0 0 0 0 0 0
          0 0 0 0 0 0
          1.2091995761561452 1.2091995761561452 1.2091995761561452 1.2091995761561452 1.2091995761561452 1.2091995761561452
          1.2091995761561452 1.2091995761561452 1.2091995761561452 1.2091995761561452 1.2091995761561452 1.2091995761561452
          1.2091995761561452 1.2091995761561452 1.2091995761561452 1.4821898202742554 -0.6139431255689369 -0.6139431255689369
          1.4821898202742554 -0.6139431255689369 -0.6139431255689369 1.4821898202742554 -0.6139431255689369 -0.6139431255689369
          0 0 0 0 0 0
          0 0 0 0 0 0
          0 0 0 0 0 0
          0 0 0 1.2091995761561452 1.2091995761561452 1.2091995761561452
          1.2091995761561452 1.2091995761561452 1.2091995761561452 1.2091995761561452 1.2091995761561452 1.2091995761561452
          1.2091995761561452 1.2091995761561452 1.2091995761561452 1.2091995761561452 1.2091995761561452 1.2091995761561452
          1.4821898202742554 -0.6139431255689369 -0.6139431255689369 1.4821898202742554 -0.6139431255689369 -0.6139431255689369
          1.4821898202742554 -0.6139431255689369 -0.6139431255689369 0 0 0
          0 0 0 0 0 0
          0 0 0 0 0 0
          0 0 0 0 0 0
          1.2091995761561452 1.2091995761561452 1.2091995761561452 1.2091995761561452 1.2091995761561452 1.2091995761561452
          1.2091995761561452 1.2091995761561452 1.2091995761561452 1.2091995761561452 1.2091995761561452 1.2091995761561452
          1.2091995761561452 1.2091995761561452 1.2091995761561452 1.4821898202742554 -0.6139431255689369 -0.6139431255689369
          1.4821898202742554 -0.6139431255689369 -0.6139431255689369 1.4821898202742554 -0.6139431255689369 -0.6139431255689369
          0 0 0 0 0 0
          0 0 0 0 0 0
          0 0 0 0 0 0
          0 0 0 1.2091995761561452 1.2091995761561452 1.2091995761561452
          1.2091995761561452 1.2091995761561452 1.2091995761561452 1.2091995761561452 1.2091995761561452 1.2091995761561452
          1.2091995761561452 1.2091995761561452 1.2091995761561452 1.2091995761561452 1.2091995761561452 1.2091995761561452
          1.4821898202742554 -0.6139431255689369 -0.6139431255689369 1.4821898202742554 -0.6139431255689369 -0.6139431255689369
          1.4821898202742554 -0.6139431255689369 -0.6139431255689369 0 0 0
          0 0 0 0 0 0
          0 0 0 0 0 0
          0 0 0 0 0 0
          1.2091995761561452 1.2091995761561452 1.2091995761561452 1.2091995761561452 1.2091995761561452 1.2091995761561452
          1.2091995761561452 1.2091995761561452 1.2091995761561452 1.2091995761561452 1.2091995761561452 1.2091995761561452
          1.2091995761561452 1.2091995761561452 1.2091995761561452 1.4821898202742554 -0.6139431255689369 -0.6139431255689369
          1.4821898202742554 -0.6139431255689369 -0.6139431255689369 1.4821898202742554 -0.6139431255689369 -0.6139431255689369
          0 0 0 0 0 0
          0 0 0 0 0 0
          0 0 0 0 0 0
          0 0 0 1.2091995761561452 1.2091995761561452 1.2091995761561452
          1.2091995761561452 1.2091995761561452 1.2091995761561452 1.2091995761561452 1.2091995761561452 1.2091995761561452
          1.2091995761561452 1.2091995761561452 1.2091995761561452 1.2091995761561452 1.2091995761561452 1.2091995761561452
          1.4821898202742554 -0.6139431255689369 -0.6139431255689369 1.4821898202742554 -0.6139431255689369 -0.6139431255689369
          1.4821898202742554 -0.6139431255689369 -0.6139431255689369
          <InformationKey name="L2_NORM_RANGE" location="vtkDataArray" length="2">
            <Value index="0">
              0
            </Value>
            <Value index="1">
              2.0943951024
            </Value>
          </InformationKey>
        </DataArray>
        <DataArray type="Float64" Name="time" format="ascii" RangeMin="2.5" RangeMax="9.4">
          2.5 2.5 2.5 2.5 2.5 2.5
          2.5 2.5 2.5 2.5 2.5 2.5
          2.5 2.5 2.5 3.6500000000000004 3.6500000000000004 3.6500000000000004
          3.6500000000000004 3.6500000000000004 3.6500000000000004 3.6500000000000004 3.6500000000000004 3.6500000000000004
          3.6500000000000004 3.6500000000000004 3.6500000000000004 3.6500000000000004 3.6500000000000004 3.6500000000000004
          4.800000000000001 4.800000000000001 4.800000000000001 4.800000000000001 4.800000000000001 4.800000000000001
          4.800000000000001 4.800000000000001 4.800000000000001 4.800000000000001 4.800000000000001 4.800000000000001
          4.800000000000001 4.800000000000001 4.800000000000001 5.95 5.95 5.95
          5.95 5.95 5.95 5.95 5.95 5.95
          5.95 5.95 5.95 5.95 5.95 5.95
          7.1000000000000005 7.1000000000000005 7.1000000000000005 7.1000000000000005 7.1000000000000005 7.1000000000000005
          7.1000000000000005 7.1000000000000005 7.1000000000000005 7.1000000000000005 7.1000000000000005 7.1000000000000005
          7.1000000000000005 7.1000000000000005 7.1000000000000005 8.25 8.25 8.25
          8.25 8.25 8.25 8.25 8.25 8.25
          8.25 8.25 8.25 8.25 8.25 8.25
          9.4 9.4 9.4 9.4 9.4 9.4
          9.4 9.4 9.4 9.4 9.4 9.4
          9.4 9.4 9.4
        </DataArray>
        <DataArray type="Int64" Name="geometry_set_0_line" format="ascii" RangeMin="0" RangeMax="1">
          0 0 0 0 0 0
          1 0 0 0 0 0
          0 0 0 0 0 0
          0 0 0 1 0 0
          0 0 0 0 0 0
          0 0 0 0 0 0
          1 0 0 0 0 0
          0 0 0 0 0 0
          0 0 0 1 0 0
          0 0 0 0 0 0
          0 0 0 0 0 0
          1 0 0 0 0 0
          0 0 0 0 0 0
          0 0 0 1 0 0
          0 0 0 0 0 0
          0 0 0 0 0 0
          1 0 0 0 0 0
          0 0 0
        </DataArray>
        <DataArray type="Int64" Name="geometry_set_1_line" format="ascii" RangeMin="0" RangeMax="1">
          1 0 0 0 0 0
          0 0 0 0 0 0
          0 0 0 1 0 0
          0 0 0 0 0 0
          0 0 0 0 0 0
          1 0 0 0 0 0
          0 0 0 0 0 0
          0 0 0 1 0 0
          0 0 0 0 0 0
          0 0 0 0 0 0
          1 0 0 0 0 0
          0 0 0 0 0 0
          0 0 0 1 0 0
          0 0 0 0 0 0
          0 0 0 0 0 0
          1 0 0 0 0 0
          0 0 0 0 0 0
          0 0 0
        </DataArray>
        <DataArray type="Int64" Name="geometry_set_2_line" format="ascii" RangeMin="0" RangeMax="1">
          0 0 0 0 0 0
          0 0 0 0 0 1
          0 0 0 0 0 0
          0 0 0 0 0 0
          0 0 1 0 0 0
          0 0 0 0 0 0
          0 0 0 0 0 1
          0 0 0 0 0 0
          0 0 0 0 0 0
          0 0 1 0 0 0
          0 0 0 0 0 0
          0 0 0 0 0 1
          0 0 0 0 0 0
          0 0 0 0 0 0
          0 0 1 0 0 0
          0 0 0 0 0 0
          0 0 0 0 0 1
          0 0 0
        </DataArray>
        <DataArray type="Int64" Name="geometry_set_3_line" format="ascii" RangeMin="0" RangeMax="1">
          0 0 0 0 0 0
          0 1 0 0 0 0
          0 0 0 0 0 0
          0 0 0 0 1 0
          0 0 0 0 0 0
          0 0 0 0 0 0
          0 1 0 0 0 0
          0 0 0 0 0 0
          0 0 0 0 1 0
          0 0 0 0 0 0
          0 0 0 0 0 0
          0 1 0 0 0 0
          0 0 0 0 0 0
          0 0 0 0 1 0
          0 0 0 0 0 0
          0 0 0 0 0 0
          0 1 0 0 0 0
          0 0 0
        </DataArray>
        <DataArray type="Int64" Name="geometry_set_4_line" format="ascii" RangeMin="0" RangeMax="1">
          0 0 0 0 0 0
          0 0 0 0 0 0
          0 0 1 0 0 0
          0 0 0 0 0 0
          0 0 0 0 0 1
          0 0 0 0 0 0
          0 0 0 0 0 0
          0 0 1 0 0 0
          0 0 0 0 0 0
          0 0 0 0 0 1
          0 0 0 0 0 0
          0 0 0 0 0 0
          0 0 1 0 0 0
          0 0 0 0 0 0
          0 0 0 0 0 1
          0 0 0 0 0 0
          0 0 0 0 0 0
          0 0 1
        </DataArray>
        <DataArray type="Int64" Name="geometry_set_5_line" format="ascii" RangeMin="0" RangeMax="1">
          0 0 0 0 0 0
          0 0 0 0 0 0
          1 0 0 0 0 0
          0 0 0 0 0 0
          0 0 0 1 0 0
          0 0 0 0 0 0
          0 0 0 0 0 0
          1 0 0 0 0 0
          0 0 0 0 0 0
          0 0 0 1 0 0
          0 0 0 0 0 0
          0 0 0 0 0 0
          1 0 0 0 0 0
          0 0 0 0 0 0
          0 0 0 1 0 0
          0 0 0 0 0 0
          0 0 0 0 0 0
          1 0 0
        </DataArray>
        <DataArray type="Int64" Name="geometry_set_6_line" format="ascii" RangeMin="0" RangeMax="1">
          0 0 0 0 0 0
          0 0 0 0 0 0
          0 0 0 0 0 0
          0 0 0 0 0 0
          0 0 0 0 0 0
          0 0 0 0 0 0
          0 0 0 0 0 0
          0 0 0 0 0 0
          0 0 0 0 0 0
          0 0 0 0 0 0
          0 0 0 0 0 0
          0 0 0 0 0 0
          0 0 0 0 0 0
          0 0 0 0 0 0
          0 0 0 0 0 0
          1 1 1 1 1 1
          1 1 1 1 1 1
          1 1 1
        </DataArray>
        <DataArray type="Int64" Name="geometry_set_7_line" format="ascii" RangeMin="0" RangeMax="1">
          1 0 0 0 0 0
          0 0 0 0 0 0
          0 0 0 1 0 0
          0 0 0 0 0 0
          0 0 0 0 0 0
          1 0 0 0 0 0
          0 0 0 0 0 0
          0 0 0 1 0 0
          0 0 0 0 0 0
          0 0 0 0 0 0
          1 0 0 0 0 0
          0 0 0 0 0 0
          0 0 0 1 0 0
          0 0 0 0 0 0
          0 0 0 0 0 0
          1 0 0 0 0 0
          0 0 0 0 0 0
          0 0 0
        </DataArray>
        <DataArray type="Int64" Name="geometry_set_8_line" format="ascii" RangeMin="0" RangeMax="1">
          0 0 0 0 0 0
          0 0 0 0 0 0
          0 0 1 0 0 0
          0 0 0 0 0 0
          0 0 0 0 0 1
          0 0 0 0 0 0
          0 0 0 0 0 0
          0 0 1 0 0 0
          0 0 0 0 0 0
          0 0 0 0 0 1
          0 0 0 0 0 0
          0 0 0 0 0 0
          0 0 1 0 0 0
          0 0 0 0 0 0
          0 0 0 0 0 1
          0 0 0 0 0 0
          0 0 0 0 0 0
          0 0 1
        </DataArray>
        <DataArray type="Int64" Name="geometry_set_9_line" format="ascii" RangeMin="0" RangeMax="1">
          1 1 1 1 1 1
          1 1 1 1 1 1
          1 1 1 0 0 0
          0 0 0 0 0 0
          0 0 0 0 0 0
          0 0 0 0 0 0
          0 0 0 0 0 0
          0 0 0 0 0 0
          0 0 0 0 0 0
          0 0 0 0 0 0
          0 0 0 0 0 0
          0 0 0 0 0 0
          0 0 0 0 0 0
          0 0 0 0 0 0
          0 0 0 0 0 0
          0 0 0 0 0 0
          0 0 0 0 0 0
          0 0 0
        </DataArray>
        <DataArray type="Int64" Name="geometry_set_10_surface" format="ascii" RangeMin="0" RangeMax="1">
          1 1 1 1 1 1
          1 0 0 0 0 0
          0 0 0 1 1 1
          1 1 1 1 0 0
          0 0 0 0 0 0
          1 1 1 1 1 1
          1 0 0 0 0 0
          0 0 0 1 1 1
          1 1 1 1 0 0
          0 0 0 0 0 0
          1 1 1 1 1 1
          1 0 0 0 0 0
          0 0 0 1 1 1
          1 1 1 1 0 0
          0 0 0 0 0 0
          1 1 1 1 1 1
          1 0 0 0 0 0
          0 0 0
        </DataArray>
        <DataArray type="Int64" Name="geometry_set_11_surface" format="ascii" RangeMin="0" RangeMax="1">
          0 0 0 0 0 0
          0 1 1 1 1 1
          0 0 0 0 0 0
          0 0 0 0 1 1
          1 1 1 0 0 0
          0 0 0 0 0 0
          0 1 1 1 1 1
          0 0 0 0 0 0
          0 0 0 0 1 1
          1 1 1 0 0 0
          0 0 0 0 0 0
          0 1 1 1 1 1
          0 0 0 0 0 0
          0 0 0 0 1 1
          1 1 1 0 0 0
          0 0 0 0 0 0
          0 1 1 1 1 1
          0 0 0
        </DataArray>
        <DataArray type="Int64" Name="geometry_set_12_surface" format="ascii" RangeMin="0" RangeMax="1">
          0 0 0 0 0 0
          0 0 0 0 0 0
          1 1 1 0 0 0
          0 0 0 0 0 0
          0 0 0 1 1 1
          0 0 0 0 0 0
          0 0 0 0 0 0
          1 1 1 0 0 0
          0 0 0 0 0 0
          0 0 0 1 1 1
          0 0 0 0 0 0
          0 0 0 0 0 0
          1 1 1 0 0 0
          0 0 0 0 0 0
          0 0 0 1 1 1
          0 0 0 0 0 0
          0 0 0 0 0 0
          1 1 1
        </DataArray>
        <DataArray type="Int64" Name="geometry_set_13_surface" format="ascii" RangeMin="1" RangeMax="1">
          1 1 1 1 1 1
          1 1 1 1 1 1
          1 1 1 1 1 1
          1 1 1 1 1 1
          1 1 1 1 1 1
          1 1 1 1 1 1
          1 1 1 1 1 1
          1 1 1 1 1 1
          1 1 1 1 1 1
          1 1 1 1 1 1
          1 1 1 1 1 1
          1 1 1 1 1 1
          1 1 1 1 1 1
          1 1 1 1 1 1
          1 1 1 1 1 1
          1 1 1 1 1 1
          1 1 1 1 1 1
          1 1 1
        </DataArray>
      </PointData>
      <CellData Scalars="element_type_id">
        <DataArray type="Int64" Name="element_type_id" format="ascii" RangeMin="0" RangeMax="0">
          0 0 0 0 0 0
          0 0 0 0 0 0
          0 0 0 0 0 0
        </DataArray>
        <DataArray type="Int64" Name="material_id" format="ascii" RangeMin="-1" RangeMax="-1">
          -1 -1 -1 -1 -1 -1
          -1 -1 -1 -1 -1 -1
          -1 -1 -1 -1 -1 -1
        </DataArray>
        <DataArray type="Int64" Name="beamme_id" format="ascii" RangeMin="0" RangeMax="17">
          0 1 2 3 4 5
          6 7 8 9 10 11
          12 13 14 15 16 17
        </DataArray>
        <DataArray type="Int64" Name="geometry_set_10_surface" format="ascii" RangeMin="0" RangeMax="1">
          1 1 1 0 0 0
          1 1 1 0 0 0
          1 1 1 0 0 0
        </DataArray>
        <DataArray type="Int64" Name="geometry_set_11_surface" format="ascii" RangeMin="0" RangeMax="1">
          0 0 0 1 1 0
          0 0 0 1 1 0
          0 0 0 1 1 0
        </DataArray>
        <DataArray type="Int64" Name="geometry_set_12_surface" format="ascii" RangeMin="0" RangeMax="1">
          0 0 0 0 0 1
          0 0 0 0 0 1
          0 0 0 0 0 1
        </DataArray>
        <DataArray type="Float64" Name="rotation_vector" NumberOfComponents="27" format="ascii" RangeMin="0" RangeMax="6.283185307179585">
          0 0 0 0 0 0
          0 0 0 0 0 0
          0 0 0 0 0 0
          0 0 0 0 0 0
          0 0 0 0 0 0
          0 0 0 0 0 0
          0 0 0 0 0 0
          0 0 0 0 0 0
          0 0 0 0 0 0
          0 0 0 0 0 0
          0 0 0 0 0 0
          0 0 0 0 0 0
          0 0 0 0 0 0
          0 0 0 1.2091995761561452 1.2091995761561452 1.2091995761561452
          1.2091995761561452 1.2091995761561452 1.2091995761561452 1.2091995761561452 1.2091995761561452 1.2091995761561452
          1.2091995761561452 1.2091995761561452 1.2091995761561452 1.2091995761561452 1.2091995761561452 1.2091995761561452
          1.2091995761561452 1.2091995761561452 1.2091995761561452 1.2091995761561452 1.2091995761561452 1.2091995761561452
          1.2091995761561452 1.2091995761561452 1.2091995761561452 1.2091995761561452 1.2091995761561452 1.2091995761561452
          1.2091995761561452 1.2091995761561452 1.2091995761561452 1.2091995761561452 1.2091995761561452 1.2091995761561452
          1.2091995761561452 1.2091995761561452 1.2091995761561452 1.2091995761561452 1.2091995761561452 1.2091995761561452
          1.2091995761561452 1.2091995761561452 1.2091995761561452 1.2091995761561452 1.2091995761561452 1.2091995761561452
          1.2091995761561452 1.2091995761561452 1.2091995761561452 1.2091995761561452 1.2091995761561452 1.2091995761561452
          1.2091995761561452 1.2091995761561452 1.2091995761561452 1.4821898202742554 -0.6139431255689369 -0.6139431255689369
          1.4821898202742554 -0.6139431255689369 -0.6139431255689369 1.4821898202742554 -0.6139431255689369 -0.6139431255689369
          1.4821898202742554 -0.6139431255689369 -0.6139431255689369 1.4821898202742554 -0.6139431255689369 -0.6139431255689369
          1.4821898202742554 -0.6139431255689369 -0.6139431255689369 1.4821898202742554 -0.6139431255689369 -0.6139431255689369
          1.4821898202742554 -0.6139431255689369 -0.6139431255689369 1.4821898202742554 -0.6139431255689369 -0.6139431255689369
          0 0 0 0 0 0
          0 0 0 0 0 0
          0 0 0 0 0 0
          0 0 0 0 0 0
          0 0 0 0 0 0
          0 0 0 0 0 0
          0 0 0 0 0 0
          0 0 0 0 0 0
          0 0 0 0 0 0
          0 0 0 0 0 0
          0 0 0 0 0 0
          0 0 0 0 0 0
          0 0 0 0 0 0
          0 0 0 1.2091995761561452 1.2091995761561452 1.2091995761561452
          1.2091995761561452 1.2091995761561452 1.2091995761561452 1.2091995761561452 1.2091995761561452 1.2091995761561452
          1.2091995761561452 1.2091995761561452 1.2091995761561452 1.2091995761561452 1.2091995761561452 1.2091995761561452
          1.2091995761561452 1.2091995761561452 1.2091995761561452 1.2091995761561452 1.2091995761561452 1.2091995761561452
          1.2091995761561452 1.2091995761561452 1.2091995761561452 1.2091995761561452 1.2091995761561452 1.2091995761561452
          1.2091995761561452 1.2091995761561452 1.2091995761561452 1.2091995761561452 1.2091995761561452 1.2091995761561452
          1.2091995761561452 1.2091995761561452 1.2091995761561452 1.2091995761561452 1.2091995761561452 1.2091995761561452
          1.2091995761561452 1.2091995761561452 1.2091995761561452 1.2091995761561452 1.2091995761561452 1.2091995761561452
          1.2091995761561452 1.2091995761561452 1.2091995761561452 1.2091995761561452 1.2091995761561452 1.2091995761561452
          1.2091995761561452 1.2091995761561452 1.2091995761561452 1.4821898202742554 -0.6139431255689369 -0.6139431255689369
          1.4821898202742554 -0.6139431255689369 -0.6139431255689369 1.4821898202742554 -0.6139431255689369 -0.6139431255689369
          1.4821898202742554 -0.6139431255689369 -0.6139431255689369 1.4821898202742554 -0.6139431255689369 -0.6139431255689369
          1.4821898202742554 -0.6139431255689369 -0.6139431255689369 1.4821898202742554 -0.6139431255689369 -0.6139431255689369
          1.4821898202742554 -0.6139431255689369 -0.6139431255689369 1.4821898202742554 -0.6139431255689369 -0.6139431255689369
          0 0 0 0 0 0
          0 0 0 0 0 0
          0 0 0 0 0 0
          0 0 0 0 0 0
          0 0 0 0 0 0
          0 0 0 0 0 0
          0 0 0 0 0 0
          0 0 0 0 0 0
          0 0 0 0 0 0
          0 0 0 0 0 0
          0 0 0 0 0 0
          0 0 0 0 0 0
          0 0 0 0 0 0
          0 0 0 1.2091995761561452 1.2091995761561452 1.2091995761561452
          1.2091995761561452 1.2091995761561452 1.2091995761561452 1.2091995761561452 1.2091995761561452 1.2091995761561452
          1.2091995761561452 1.2091995761561452 1.2091995761561452 1.2091995761561452 1.2091995761561452 1.2091995761561452
          1.2091995761561452 1.2091995761561452 1.2091995761561452 1.2091995761561452 1.2091995761561452 1.2091995761561452
          1.2091995761561452 1.2091995761561452 1.2091995761561452 1.2091995761561452 1.2091995761561452 1.2091995761561452
          1.2091995761561452 1.2091995761561452 1.2091995761561452 1.2091995761561452 1.2091995761561452 1.2091995761561452
          1.2091995761561452 1.2091995761561452 1.2091995761561452 1.2091995761561452 1.2091995761561452 1.2091995761561452
          1.2091995761561452 1.2091995761561452 1.2091995761561452 1.2091995761561452 1.2091995761561452 1.2091995761561452
          1.2091995761561452 1.2091995761561452 1.2091995761561452 1.2091995761561452 1.2091995761561452 1.2091995761561452
          1.2091995761561452 1.2091995761561452 1.2091995761561452 1.4821898202742554 -0.6139431255689369 -0.6139431255689369
          1.4821898202742554 -0.6139431255689369 -0.6139431255689369 1.4821898202742554 -0.6139431255689369 -0.6139431255689369
          1.4821898202742554 -0.6139431255689369 -0.6139431255689369 1.4821898202742554 -0.6139431255689369 -0.6139431255689369
          1.4821898202742554 -0.6139431255689369 -0.6139431255689369 1.4821898202742554 -0.6139431255689369 -0.6139431255689369
          1.4821898202742554 -0.6139431255689369 -0.6139431255689369 1.4821898202742554 -0.6139431255689369 -0.6139431255689369
          <InformationKey name="L2_NORM_RANGE" location="vtkDataArray" length="2">
            <Value index="0">
              0
            </Value>
            <Value index="1">
              6.2831853072
            </Value>
          </InformationKey>
        </DataArray>
      </CellData>
      <Points>
        <DataArray type="Float64" Name="Points" NumberOfComponents="3" format="ascii" RangeMin="0" RangeMax="2.23606797749979">
          0 0 0 0.16666666666666666 0 0
          0.3333333333333333 0 0 0.5 0 0
          0.6666666666666666 0 0 0.8333333333333333 0 0
          1 0 0 1 0 0
          1 0.25 0 1 0.5 0
          1 0.75 0 1 1 0
          1 0 0 1.5 -0.5 0
          2 -1 0 0 0 0
          0.16666666666666666 0 0 0.3333333333333333 0 0
          0.5 0 0 0.6666666666666666 0 0
          0.8333333333333333 0 0 1 0 0
          1 0 0 1 0.25 0
          1 0.5 0 1 0.75 0
          1 1 0 1 0 0
          1.5 -0.5 0 2 -1 0
          0 0 0 0.16666666666666666 0 0
          0.3333333333333333 0 0 0.5 0 0
          0.6666666666666666 0 0 0.8333333333333333 0 0
          1 0 0 1 0 0
          1 0.25 0 1 0.5 0
          1 0.75 0 1 1 0
          1 0 0 1.5 -0.5 0
          2 -1 0 0 0 0
          0.16666666666666666 0 0 0.3333333333333333 0 0
          0.5 0 0 0.6666666666666666 0 0
          0.8333333333333333 0 0 1 0 0
          1 0 0 1 0.25 0
          1 0.5 0 1 0.75 0
          1 1 0 1 0 0
          1.5 -0.5 0 2 -1 0
          0 0 0 0.16666666666666666 0 0
          0.3333333333333333 0 0 0.5 0 0
          0.6666666666666666 0 0 0.8333333333333333 0 0
          1 0 0 1 0 0
          1 0.25 0 1 0.5 0
          1 0.75 0 1 1 0
          1 0 0 1.5 -0.5 0
          2 -1 0 0 0 0
          0.16666666666666666 0 0 0.3333333333333333 0 0
          0.5 0 0 0.6666666666666666 0 0
          0.8333333333333333 0 0 1 0 0
          1 0 0 1 0.25 0
          1 0.5 0 1 0.75 0
          1 1 0 1 0 0
          1.5 -0.5 0 2 -1 0
          0 0 0 0.16666666666666666 0 0
          0.3333333333333333 0 0 0.5 0 0
          0.6666666666666666 0 0 0.8333333333333333 0 0
          1 0 0 1 0 0
          1 0.25 0 1 0.5 0
          1 0.75 0 1 1 0
          1 0 0 1.5 -0.5 0
          2 -1 0
          <InformationKey name="L2_NORM_RANGE" location="vtkDataArray" length="2">
            <Value index="0">
              0
            </Value>
            <Value index="1">
              2.2360679775
            </Value>
          </InformationKey>
        </DataArray>
      </Points>
      <Cells>
        <DataArray type="Int64" Name="connectivity" format="ascii" RangeMin="0" RangeMax="104">
          0 2 32 30 1 17
          31 15 16 2 4 34
          32 3 19 33 17 18
          4 6 36 34 5 21
          35 19 20 7 9 39
          37 8 24 38 22 23
          9 11 41 39 10 26
          40 24 25 12 14 44
          42 13 29 43 27 28
          30 32 62 60 31 47
          61 45 46 32 34 64
          62 33 49 63 47 48
          34 36 66 64 35 51
          65 49 50 37 39 69
          67 38 54 68 52 53
          39 41 71 69 40 56
          70 54 55 42 44 74
          72 43 59 73 57 58
          60 62 92 90 61 77
          91 75 76 62 64 94
          92 63 79 93 77 78
          64 66 96 94 65 81
          95 79 80 67 69 99
          97 68 84 98 82 83
          69 71 101 99 70 86
          100 84 85 72 74 104
          102 73 89 103 87 88
        </DataArray>
        <DataArray type="Int64" Name="offsets" format="ascii" RangeMin="9" RangeMax="162">
          9 18 27 36 45 54
          63 72 81 90 99 108
          117 126 135 144 153 162
        </DataArray>
        <DataArray type="UInt8" Name="types" format="ascii" RangeMin="28" RangeMax="28">
          28 28 28 28 28 28
          28 28 28 28 28 28
          28 28 28 28 28 28
        </DataArray>
      </Cells>
    </Piece>
  </UnstructuredGrid>
</VTKFile>
