<?xml version="1.0"?>
<VTKFile type="UnstructuredGrid" version="0.1" byte_order="LittleEndian" header_type="UInt32" compressor="vtkZLibDataCompressor">
  <UnstructuredGrid>
    <Piece NumberOfPoints="36" NumberOfCells="18">
      <PointData Scalars="point_type">
        <DataArray type="Int64" Name="point_type" format="ascii" RangeMin="4" RangeMax="4">
          4 4 4 4 4 4
          4 4 4 4 4 4
          4 4 4 4 4 4
          4 4 4 4 4 4
          4 4 4 4 4 4
          4 4 4 4 4 4
        </DataArray>
        <DataArray type="Float64" Name="rotation_vector" NumberOfComponents="3" format="ascii" RangeMin="0" RangeMax="2.0943951023931953">
          0 0 0 0 0 0
          0 0 0 0 0 0
          1.2091995761561452 1.2091995761561452 1.2091995761561452 1.2091995761561452 1.2091995761561452 1.2091995761561452
          1.2091995761561452 1.2091995761561452 1.2091995761561452 1.4821898202742554 -0.6139431255689369 -0.6139431255689369
          1.4821898202742554 -0.6139431255689369 -0.6139431255689369 0 0 0
          0 0 0 0 0 0
          0 0 0 1.2091995761561452 1.2091995761561452 1.2091995761561452
          1.2091995761561452 1.2091995761561452 1.2091995761561452 1.2091995761561452 1.2091995761561452 1.2091995761561452
          1.4821898202742554 -0.6139431255689369 -0.6139431255689369 1.4821898202742554 -0.6139431255689369 -0.6139431255689369
          0 0 0 0 0 0
          0 0 0 0 0 0
          1.2091995761561452 1.2091995761561452 1.2091995761561452 1.2091995761561452 1.2091995761561452 1.2091995761561452
          1.2091995761561452 1.2091995761561452 1.2091995761561452 1.4821898202742554 -0.6139431255689369 -0.6139431255689369
          1.4821898202742554 -0.6139431255689369 -0.6139431255689369 0 0 0
          0 0 0 0 0 0
          0 0 0 1.2091995761561452 1.2091995761561452 1.2091995761561452
          1.2091995761561452 1.2091995761561452 1.2091995761561452 1.2091995761561452 1.2091995761561452 1.2091995761561452
          1.4821898202742554 -0.6139431255689369 -0.6139431255689369 1.4821898202742554 -0.6139431255689369 -0.6139431255689369
          <InformationKey name="L2_NORM_RANGE" location="vtkDataArray" length="2">
            <Value index="0">
              0
            </Value>
            <Value index="1">
              2.0943951024
            </Value>
          </InformationKey>
        </DataArray>
        <DataArray type="Float64" Name="time" format="ascii" RangeMin="2.5" RangeMax="9.4">
          2.5 2.5 2.5 2.5 2.5 2.5
          2.5 2.5 2.5 4.800000000000001 4.800000000000001 4.800000000000001
          4.800000000000001 4.800000000000001 4.800000000000001 4.800000000000001 4.800000000000001 4.800000000000001
          7.1000000000000005 7.1000000000000005 7.1000000000000005 7.1000000000000005 7.1000000000000005 7.1000000000000005
          7.1000000000000005 7.1000000000000005 7.1000000000000005 9.4 9.4 9.4
          9.4 9.4 9.4 9.4 9.4 9.4
        </DataArray>
        <DataArray type="Int64" Name="geometry_set_0_line" format="ascii" RangeMin="0" RangeMax="1">
          0 0 0 1 0 0
          0 0 0 0 0 0
          1 0 0 0 0 0
          0 0 0 1 0 0
          0 0 0 0 0 0
          1 0 0 0 0 0
        </DataArray>
        <DataArray type="Int64" Name="geometry_set_1_line" format="ascii" RangeMin="0" RangeMax="1">
          1 0 0 0 0 0
          0 0 0 1 0 0
          0 0 0 0 0 0
          1 0 0 0 0 0
          0 0 0 1 0 0
          0 0 0 0 0 0
        </DataArray>
        <DataArray type="Int64" Name="geometry_set_2_line" format="ascii" RangeMin="0" RangeMax="1">
          0 0 0 0 0 0
          1 0 0 0 0 0
          0 0 0 1 0 0
          0 0 0 0 0 0
          1 0 0 0 0 0
          0 0 0 1 0 0
        </DataArray>
        <DataArray type="Int64" Name="geometry_set_3_line" format="ascii" RangeMin="0" RangeMax="1">
          0 0 0 0 1 0
          0 0 0 0 0 0
          0 1 0 0 0 0
          0 0 0 0 1 0
          0 0 0 0 0 0
          0 1 0 0 0 0
        </DataArray>
        <DataArray type="Int64" Name="geometry_set_4_line" format="ascii" RangeMin="0" RangeMax="1">
          0 0 0 0 0 0
          0 0 1 0 0 0
          0 0 0 0 0 1
          0 0 0 0 0 0
          0 0 1 0 0 0
          0 0 0 0 0 1
        </DataArray>
        <DataArray type="Int64" Name="geometry_set_5_line" format="ascii" RangeMin="0" RangeMax="1">
          0 0 0 0 0 0
          0 1 0 0 0 0
          0 0 0 0 1 0
          0 0 0 0 0 0
          0 1 0 0 0 0
          0 0 0 0 1 0
        </DataArray>
        <DataArray type="Int64" Name="geometry_set_6_line" format="ascii" RangeMin="0" RangeMax="1">
          0 0 0 0 0 0
          0 0 0 0 0 0
          0 0 0 0 0 0
          0 0 0 0 0 0
          0 0 0 1 1 1
          1 1 1 1 1 1
        </DataArray>
        <DataArray type="Int64" Name="geometry_set_7_line" format="ascii" RangeMin="0" RangeMax="1">
          1 1 1 1 1 1
          1 1 1 0 0 0
          0 0 0 0 0 0
          0 0 0 0 0 0
          0 0 0 0 0 0
          0 0 0 0 0 0
        </DataArray>
        <DataArray type="Int64" Name="geometry_set_8_surface" format="ascii" RangeMin="0" RangeMax="1">
          1 1 1 1 0 0
          0 0 0 1 1 1
          1 0 0 0 0 0
          1 1 1 1 0 0
          0 0 0 1 1 1
          1 0 0 0 0 0
        </DataArray>
        <DataArray type="Int64" Name="geometry_set_9_surface" format="ascii" RangeMin="0" RangeMax="1">
          0 0 0 0 1 1
          1 0 0 0 0 0
          0 1 1 1 0 0
          0 0 0 0 1 1
          1 0 0 0 0 0
          0 1 1 1 0 0
        </DataArray>
        <DataArray type="Int64" Name="geometry_set_10_surface" format="ascii" RangeMin="0" RangeMax="1">
          0 0 0 0 0 0
          0 1 1 0 0 0
          0 0 0 0 1 1
          0 0 0 0 0 0
          0 1 1 0 0 0
          0 0 0 0 1 1
        </DataArray>
        <DataArray type="Int64" Name="geometry_set_11_surface" format="ascii" RangeMin="1" RangeMax="1">
          1 1 1 1 1 1
          1 1 1 1 1 1
          1 1 1 1 1 1
          1 1 1 1 1 1
          1 1 1 1 1 1
          1 1 1 1 1 1
        </DataArray>
      </PointData>
      <CellData Scalars="element_type_id">
        <DataArray type="Int64" Name="element_type_id" format="ascii" RangeMin="0" RangeMax="0">
          0 0 0 0 0 0
          0 0 0 0 0 0
          0 0 0 0 0 0
        </DataArray>
        <DataArray type="Int64" Name="material_id" format="ascii" RangeMin="-1" RangeMax="-1">
          -1 -1 -1 -1 -1 -1
          -1 -1 -1 -1 -1 -1
          -1 -1 -1 -1 -1 -1
        </DataArray>
        <DataArray type="Int64" Name="beamme_id" format="ascii" RangeMin="0" RangeMax="17">
          0 1 2 3 4 5
          6 7 8 9 10 11
          12 13 14 15 16 17
        </DataArray>
        <DataArray type="Int64" Name="geometry_set_8_surface" format="ascii" RangeMin="0" RangeMax="1">
          1 1 1 0 0 0
          1 1 1 0 0 0
          1 1 1 0 0 0
        </DataArray>
        <DataArray type="Int64" Name="geometry_set_9_surface" format="ascii" RangeMin="0" RangeMax="1">
          0 0 0 1 1 0
          0 0 0 1 1 0
          0 0 0 1 1 0
        </DataArray>
        <DataArray type="Int64" Name="geometry_set_10_surface" format="ascii" RangeMin="0" RangeMax="1">
          0 0 0 0 0 1
          0 0 0 0 0 1
          0 0 0 0 0 1
        </DataArray>
        <DataArray type="Float64" Name="rotation_vector" NumberOfComponents="12" format="ascii" RangeMin="0" RangeMax="4.188790204786391">
          0 0 0 0 0 0
          0 0 0 0 0 0
          0 0 0 0 0 0
          0 0 0 0 0 0
          0 0 0 0 0 0
          0 0 0 0 0 0
          1.2091995761561452 1.2091995761561452 1.2091995761561452 1.2091995761561452 1.2091995761561452 1.2091995761561452
          1.2091995761561452 1.2091995761561452 1.2091995761561452 1.2091995761561452 1.2091995761561452 1.2091995761561452
          1.2091995761561452 1.2091995761561452 1.2091995761561452 1.2091995761561452 1.2091995761561452 1.2091995761561452
          1.2091995761561452 1.2091995761561452 1.2091995761561452 1.2091995761561452 1.2091995761561452 1.2091995761561452
          1.4821898202742554 -0.6139431255689369 -0.6139431255689369 1.4821898202742554 -0.6139431255689369 -0.6139431255689369
          1.4821898202742554 -0.6139431255689369 -0.6139431255689369 1.4821898202742554 -0.6139431255689369 -0.6139431255689369
          0 0 0 0 0 0
          0 0 0 0 0 0
          0 0 0 0 0 0
          0 0 0 0 0 0
          0 0 0 0 0 0
          0 0 0 0 0 0
          1.2091995761561452 1.2091995761561452 1.2091995761561452 1.2091995761561452 1.2091995761561452 1.2091995761561452
          1.2091995761561452 1.2091995761561452 1.2091995761561452 1.2091995761561452 1.2091995761561452 1.2091995761561452
          1.2091995761561452 1.2091995761561452 1.2091995761561452 1.2091995761561452 1.2091995761561452 1.2091995761561452
          1.2091995761561452 1.2091995761561452 1.2091995761561452 1.2091995761561452 1.2091995761561452 1.2091995761561452
          1.4821898202742554 -0.6139431255689369 -0.6139431255689369 1.4821898202742554 -0.6139431255689369 -0.6139431255689369
          1.4821898202742554 -0.6139431255689369 -0.6139431255689369 1.4821898202742554 -0.6139431255689369 -0.6139431255689369
          0 0 0 0 0 0
          0 0 0 0 0 0
          0 0 0 0 0 0
          0 0 0 0 0 0
          0 0 0 0 0 0
          0 0 0 0 0 0
          1.2091995761561452 1.2091995761561452 1.2091995761561452 1.2091995761561452 1.2091995761561452 1.2091995761561452
          1.2091995761561452 1.2091995761561452 1.2091995761561452 1.2091995761561452 1.2091995761561452 1.2091995761561452
          1.2091995761561452 1.2091995761561452 1.2091995761561452 1.2091995761561452 1.2091995761561452 1.2091995761561452
          1.2091995761561452 1.2091995761561452 1.2091995761561452 1.2091995761561452 1.2091995761561452 1.2091995761561452
          1.4821898202742554 -0.6139431255689369 -0.6139431255689369 1.4821898202742554 -0.6139431255689369 -0.6139431255689369
          1.4821898202742554 -0.6139431255689369 -0.6139431255689369 1.4821898202742554 -0.6139431255689369 -0.6139431255689369
          <InformationKey name="L2_NORM_RANGE" location="vtkDataArray" length="2">
            <Value index="0">
              0
            </Value>
            <Value index="1">
              4.1887902048
            </Value>
          </InformationKey>
        </DataArray>
      </CellData>
      <Points>
        <DataArray type="Float64" Name="Points" NumberOfComponents="3" format="ascii" RangeMin="0" RangeMax="2.23606797749979">
          0 0 0 0.3333333333333333 0 0
          0.6666666666666666 0 0 1 0 0
          1 0 0 1 0.5 0
          1 1 0 1 0 0
          2 -1 0 0 0 0
          0.3333333333333333 0 0 0.6666666666666666 0 0
          1 0 0 1 0 0
          1 0.5 0 1 1 0
          1 0 0 2 -1 0
          0 0 0 0.3333333333333333 0 0
          0.6666666666666666 0 0 1 0 0
          1 0 0 1 0.5 0
          1 1 0 1 0 0
          2 -1 0 0 0 0
          0.3333333333333333 0 0 0.6666666666666666 0 0
          1 0 0 1 0 0
          1 0.5 0 1 1 0
          1 0 0 2 -1 0
          <InformationKey name="L2_NORM_RANGE" location="vtkDataArray" length="2">
            <Value index="0">
              0
            </Value>
            <Value index="1">
              2.2360679775
            </Value>
          </InformationKey>
        </DataArray>
      </Points>
      <Cells>
        <DataArray type="Int64" Name="connectivity" format="ascii" RangeMin="0" RangeMax="35">
          0 1 10 9 1 2
          11 10 2 3 12 11
          4 5 14 13 5 6
          15 14 7 8 17 16
          9 10 19 18 10 11
          20 19 11 12 21 20
          13 14 23 22 14 15
          24 23 16 17 26 25
          18 19 28 27 19 20
          29 28 20 21 30 29
          22 23 32 31 23 24
          33 32 25 26 35 34
        </DataArray>
        <DataArray type="Int64" Name="offsets" format="ascii" RangeMin="4" RangeMax="72">
          4 8 12 16 20 24
          28 32 36 40 44 48
          52 56 60 64 68 72
        </DataArray>
        <DataArray type="UInt8" Name="types" format="ascii" RangeMin="9" RangeMax="9">
          9 9 9 9 9 9
          9 9 9 9 9 9
          9 9 9 9 9 9
        </DataArray>
      </Cells>
    </Piece>
  </UnstructuredGrid>
</VTKFile>
