<?xml version="1.0"?>
<VTKFile type="UnstructuredGrid" version="0.1" byte_order="LittleEndian" header_type="UInt32" compressor="vtkZLibDataCompressor">
  <UnstructuredGrid>
    <Piece NumberOfPoints="41" NumberOfCells="20">
      <PointData Scalars="point_type">
        <DataArray type="Int64" Name="point_type" format="ascii" RangeMin="2" RangeMax="2">
          2 2 2 2 2 2
          2 2 2 2 2 2
          2 2 2 2 2 2
          2 2 2 2 2 2
          2 2 2 2 2 2
          2 2 2 2 2 2
          2 2 2 2 2
        </DataArray>
        <DataArray type="Float64" Name="rotation_vector" NumberOfComponents="3" format="ascii" RangeMin="1.2701879916415675" RangeMax="5.6373579766498025">
          1.5400605863072487 1.3197523715669974 0.5103273041267739 1.626857185633587 1.5286452853084243 0.5999417731287542
          1.704565168702333 1.7415409249379108 0.6918788380462465 1.7719061936971228 1.9587441649247743 0.786348406482346
          1.827238977443507 2.1806204436518133 0.8836082222290402 1.8684304922793646 2.407601201708288 0.9839735784873581
          1.8926678399403645 2.640184993767816 1.0878284143463037 1.8961776442388754 2.878927119444536 1.1956364249704265
          1.873797844830446 3.124401935512685 1.3079481243488789 1.8183083130106195 3.377102460045403 1.4253931200937795
          1.7193587431381971 3.6371965477194266 1.5486301794098385 1.5617136901076436 3.9039502301934905 1.6781851741714766
          1.3223423310738058 4.174359269869988 1.8139958801362925 0.9656524195033251 4.439844607941259 1.954185393796859
          0.43636270092555923 4.678139666472398 2.091793349293596 -0.3472854442217662 4.833655589185624 2.206275514930639
          -1.4802196312090197 4.775865437343455 2.2439276273192377 -2.9650197907303215 4.255237218583466 2.0920080367429743
          -4.459000748168706 3.041382757529525 1.6269936099844333 -5.349164353474232 1.3818947403115402 0.9263757235731853
          -5.489628836633514 -0.10783602226221327 0.2603391874578096 -5.214924674920012 -1.151350929311159 -0.22721004814919366
          -4.806913099869021 -1.811508252429106 -0.5488369855424782 -4.386174178427708 -2.213532224019361 -0.7544024705717318
          -3.9903497165987343 -2.4501229685556716 -0.8837239112536388 -3.626886016407044 -2.5792184378200638 -0.9625928195117165
          -3.293870056382709 -2.636135260612847 -1.007093970796075 -2.987141925767074 -2.642787181374582 -1.0273752714048474
          -2.7025349744968117 -2.613190642513104 -1.030012310304631 -2.4364773363385797 -2.556606908910675 -1.0193959672472663
          -2.186064553808533 -2.479347433721845 -0.9985450609709612 -1.948978983694916 -2.385836078876336 -0.9695914303374646
          -1.7233805157976165 -2.2792523420153152 -0.9340770804071064 -1.5078068429567468 -2.161932416016507 -0.8931412354461237
          -1.3010921741813415 -2.035626317893253 -0.8476412399556607 -1.1023038518438937 -1.9016670477507074 -0.7982326543868011
          -0.9106938391567981 -1.7610845235636587 -0.7454235303826316 -0.7256618648632418 -1.6146839678573057 -0.689611947829697
          -0.5467275041604553 -1.4631008710346778 -0.63111245210729 -0.37350907226946634 -1.306840180640339 -0.570174971612051
          -0.20570773496264608 -1.146304647992993 -0.5069985363653792
          <InformationKey name="L2_NORM_RANGE" location="vtkDataArray" length="2">
            <Value index="0">
              1.2701879916
            </Value>
            <Value index="1">
              5.6373579766
            </Value>
          </InformationKey>
        </DataArray>
        <DataArray type="Float64" Name="node_value" format="ascii" RangeMin="0.5" RangeMax="1">
          1 0.5 1 0.5 1 0.5
          1 0.5 1 0.5 1 0.5
          1 0.5 1 0.5 1 0.5
          1 0.5 1 0.5 1 0.5
          1 0.5 1 0.5 1 0.5
          1 0.5 1 0.5 1 0.5
          1 0.5 1 0.5 1
        </DataArray>
        <DataArray type="Float64" Name="base_vector_1" NumberOfComponents="3" format="ascii" RangeMin="0.9999999999999998" RangeMax="1">
          0.31456317410915846 0.9075007882318896 -0.2783744400135728 0.15473121482960506 0.9710338543942436 -0.18207554689637315
          0.0037315950658297625 0.9982902462508613 -0.05833231898921565 -0.1300914221541789 0.9877637712484011 0.08601717323325285
          -0.23934275559359763 0.9400361240713632 0.24299615384971002 -0.3179851591732443 0.8577447421012139 0.40392993939950594
          -0.36167284115107146 0.7454370602067936 0.5599253032717535 -0.3679916132657026 0.6093192187694934 0.7023619168236841
          -0.3365922991641044 0.45691311137773083 0.8233687101138489 -0.26921002994244914 0.2966407237897358 0.9162588284801884
          -0.16956836052549495 0.13735873365972942 0.9758991491932406 -0.04317350542863929 -0.012130910879271707 0.9989939386353865
          0.10298993553281521 -0.14356738827059487 0.9842669750652548 0.26084494734144226 -0.24968749784829924 0.9325320728343319
          0.42166843691344524 -0.32462702546230543 0.8466481108763354 0.576573272611226 -0.36424480088594263 0.7313610506021911
          0.7169993885525585 -0.36635153954196653 0.5930416733168828 0.8351868152140338 -0.33083082271684233 0.43933352983028356
          0.9246044965823497 -0.259645530877391 0.27873055662251595 0.9803111973493843 -0.15672937458368816 0.12010769956177861
          0.999228556361985 -0.02776951701725544 -0.0277695170172549 0.9803111973493842 0.12010769956177869 -0.15672937458368832
          0.9246044965823499 0.27873055662251583 -0.25964553087739045 0.8351868152140335 0.43933352983028406 -0.33083082271684233
          0.71699938855256 0.5930416733168812 -0.3663515395419662 0.5765732726112264 0.731361050602191 -0.36424480088594247
          0.4216684369134448 0.8466481108763355 -0.3246270254623056 0.26084494734144215 0.9325320728343319 -0.2496874978482988
          0.10298993553281577 0.9842669750652547 -0.14356738827059487 -0.043173505428639514 0.9989939386353865 -0.01213091087927171
          -0.1695683605254943 0.975899149193241 0.1373587336597292 -0.2692100299424489 0.9162588284801882 0.29664072378973566
          -0.3365922991641046 0.8233687101138486 0.45691311137773116 -0.3679916132657024 0.7023619168236847 0.6093192187694931
          -0.36167284115107146 0.5599253032717539 0.7454370602067931 -0.3179851591732441 0.4039299393995057 0.857744742101214
          -0.2393427555935983 0.24299615384971007 0.9400361240713632 -0.13009142215417824 0.08601717323325193 0.9877637712484013
          0.0037315950658296515 -0.05833231898921597 0.9982902462508612 0.1547312148296045 -0.1820755468963734 0.9710338543942437
          0.3145631741091579 -0.2783744400135729 0.9075007882318897
          <InformationKey name="L2_NORM_RANGE" location="vtkDataArray" length="2">
            <Value index="0">
              1
            </Value>
            <Value index="1">
              1
            </Value>
          </InformationKey>
        </DataArray>
        <DataArray type="Float64" Name="base_vector_2" NumberOfComponents="3" format="ascii" RangeMin="0.9999999999999998" RangeMax="1">
          0.4841315346346538 0.09887190041580196 0.8693911688535044 0.587981924122303 0.05759146003300608 0.806821219748651
          0.6860935245534002 0.039881692079859254 0.7264193872707007 0.7730446732683001 0.04672124115292986 0.6326286894827303
          0.8440304359459908 0.07773215268155131 0.5306320152764178 0.8951281280396393 0.13120075875757142 0.4260657171067494
          0.9235140829491609 0.20417237569677849 0.32470814525802055 0.9276196882870793 0.2926145803296918 0.23216033528718932
          0.9072180676487901 0.39164004234788596 0.15353649390728416 0.8634366178387974 0.49577659895492265 0.09318138711024039
          0.7986947087438119 0.5992696474536727 0.054430247706475796 0.7165699885676352 0.6964001455075213 0.03942446982880344
          0.6216006824218405 0.7818006463303856 0.04899327515173424 0.519034809283598 0.8507519046506384 0.08260788996972392
          0.41454017563149176 0.8994436629561412 0.13841076531632723 0.313891171557168 0.9251852069309777 0.21331822541581488
          0.22264967704956298 0.9265540547569254 0.3031908720974722 0.14585771162123662 0.9034745636851954 0.40306232859752844
          0.08775881150739641 0.8572221100667734 0.5074136823297908 0.05156353117794771 0.7903526118522195 0.6104784608737934
          0.03927202758635272 0.7065612881588037 0.7065612881588043 0.05156353117794776 0.6104784608737934 0.7903526118522194
          0.08775881150739635 0.5074136823297901 0.8572221100667736 0.14585771162123676 0.4030623285975279 0.9034745636851956
          0.2226496770495619 0.3031908720974732 0.9265540547569253 0.3138911715571682 0.21331822541581447 0.9251852069309777
          0.4145401756314914 0.1384107653163279 0.8994436629561412 0.5190348092835986 0.08260788996972357 0.850751904650638
          0.6216006824218404 0.048993275151733795 0.7818006463303858 0.7165699885676352 0.039424469828803765 0.6964001455075212
          0.7986947087438117 0.05443024770647531 0.5992696474536728 0.8634366178387971 0.0931813871102406 0.49577659895492265
          0.9072180676487899 0.1535364939072843 0.39164004234788613 0.9276196882870795 0.2321603352871887 0.292614580329692
          0.9235140829491612 0.32470814525801994 0.2041723756967791 0.8951281280396393 0.42606571710674956 0.1312007587575712
          0.8440304359459909 0.5306320152764177 0.0777321526815517 0.7730446732683 0.6326286894827307 0.0467212411529297
          0.6860935245534001 0.7264193872707008 0.03988169207985969 0.5879819241223029 0.8068212197486511 0.05759146003300658
          0.48413153463465364 0.8693911688535045 0.09887190041580243
          <InformationKey name="L2_NORM_RANGE" location="vtkDataArray" length="2">
            <Value index="0">
              1
            </Value>
            <Value index="1">
              1
            </Value>
          </InformationKey>
        </DataArray>
        <DataArray type="Float64" Name="base_vector_3" NumberOfComponents="3" format="ascii" RangeMin="0.9999999999999998" RangeMax="1.0000000000000002">
          0.8164965809277257 -0.40824829046386313 -0.4082482904638636 0.7939367154016678 -0.23189755788176256 -0.5620391575199057
          0.7275037805840995 -0.0427321293319467 -0.6847716512521531 0.6208688710294713 0.14879468348790556 -0.7696635545173773
          0.47992464881654484 0.3320990784094117 -0.812023727225957 0.31245971410378254 0.49705162538629694 -0.8095113394900793
          0.12772820584460623 0.6345370204114074 -0.7622652262560135 -0.06406158340446638 0.7369577986673406 -0.6728962152628739
          -0.2523113193557069 0.7986541716418111 -0.5463428522861034 -0.4266182916302164 0.8162167879418993 -0.38959849631168275
          -0.5773502691896255 0.7886751345948129 -0.21132486540518713 -0.6961777789567709 0.7175511677492709 -0.021373388792499393
          -0.7765343938240268 0.6067752091364245 0.16975918468760276 -0.8139795944606837 0.4624687558652656 0.3515108385954183
          -0.8064441531181089 0.2926062055178173 0.5138379476002926 -0.7543444794845716 0.10657418966918739 0.6477702898153841
          -0.6605596098195701 -0.08534713286766818 0.7459067426872383 -0.5302721109517788 -0.27255215925459664 0.8028242702063767
          -0.3706816908110097 -0.44469590992954544 0.8153776007405553 -0.19060734142177557 -0.5922656938241324 0.7828730352459088
          -3.972516759986888e-16 -0.7071067811865478 0.7071067811865474 0.19060734142177574 -0.7828730352459087 0.5922656938241324
          0.37068169081100927 -0.8153776007405558 0.4446959099295449 0.5302721109517792 -0.8028242702063767 0.27255215925459597
          0.6605596098195688 -0.7459067426872392 0.08534713286767037 0.7543444794845713 -0.6477702898153844 -0.10657418966918764
          0.8064441531181092 -0.513837947600292 -0.2926062055178169 0.8139795944606834 -0.35151083859541793 -0.46246875586526626
          0.7765343938240269 -0.1697591846876033 -0.6067752091364242 0.6961777789567706 0.021373388792499618 -0.717551167749271
          0.5773502691896261 0.2113248654051865 -0.7886751345948126 0.42661829163021636 0.38959849631168253 -0.8162167879418991
          0.2523113193557067 0.5463428522861039 -0.7986541716418105 0.06406158340446708 0.6728962152628739 -0.7369577986673408
          -0.12772820584460523 0.7622652262560133 -0.6345370204114078 -0.3124597141037827 0.8095113394900796 -0.49705162538629666
          -0.4799246488165446 0.8120237272259572 -0.332099078409412 -0.6208688710294719 0.769663554517377 -0.14879468348790437
          -0.7275037805840997 0.6847716512521529 0.04273212933194681 -0.793936715401668 0.5620391575199057 0.23189755788176236
          -0.816496580927726 0.40824829046386335 0.4082482904638627
          <InformationKey name="L2_NORM_RANGE" location="vtkDataArray" length="2">
            <Value index="0">
              1
            </Value>
            <Value index="1">
              1
            </Value>
          </InformationKey>
        </DataArray>
      </PointData>
      <CellData Scalars="element_type_id">
        <DataArray type="Int64" Name="element_type_id" format="ascii" RangeMin="0" RangeMax="0">
          0 0 0 0 0 0
          0 0 0 0 0 0
          0 0 0 0 0 0
          0 0
        </DataArray>
        <DataArray type="Int64" Name="beamme_id" format="ascii" RangeMin="0" RangeMax="19">
          0 1 2 3 4 5
          6 7 8 9 10 11
          12 13 14 15 16 17
          18 19
        </DataArray>
        <DataArray type="Int64" Name="beamme_type" format="ascii" RangeMin="1" RangeMax="1">
          1 1 1 1 1 1
          1 1 1 1 1 1
          1 1 1 1 1 1
          1 1
        </DataArray>
        <DataArray type="Float64" Name="cross_section_radius" format="ascii" RangeMin="0.05" RangeMax="0.05">
          0.05 0.05 0.05 0.05 0.05 0.05
          0.05 0.05 0.05 0.05 0.05 0.05
          0.05 0.05 0.05 0.05 0.05 0.05
          0.05 0.05
        </DataArray>
      </CellData>
      <Points>
        <DataArray type="Float64" Name="Points" NumberOfComponents="3" format="ascii" RangeMin="1" RangeMax="5.636798975650655">
          1 0 0 1.0537487305804878 0.21615855384608818 -0.053400933480465984
          1.0716752500896518 0.44278026313544394 -0.08144281133287623 1.0567769946794638 0.6713300346075415 -0.07858797644867588
          1.0138653027897953 0.8931662299786798 -0.04100612898403583 0.949299539820243 1.10001820424933 0.03321401066097612
          0.8706356785857071 1.2844433428635333 0.14395908422741843 0.786208755055693 1.440238341774163 0.28909735979291235
          0.7046722729396613 1.562782003012163 0.464596531617054 0.6345200096943635 1.649290602822034 0.6647465459985906
          0.5836166490293344 1.6989717206797446 0.882475139752019 0.5587631772330077 1.7130680285770459 1.109738654597154
          0.5653210595876702 1.6947886207693685 1.3379665309962785 0.6069159649443903 1.6491316787163637 1.5585349186386726
          0.6852374106850871 1.5826082707787121 1.7632432317817373 0.7999453997230244 1.502882549543916 1.9447673149247056
          0.9486892087959539 1.4183482295341492 2.097064176807653 1.1272372898078329 1.3376647492054405 2.215705927070592
          1.329711105850294 1.269278748999973 2.298124462179708 1.5489099800880917 1.2209573086505023 2.3437533792374907
          1.7767090063073985 1.1993587371177719 2.354059275497024 2.0045080325267057 1.2096646333773051 2.3324607039642933
          2.223706906764503 1.255293550435088 2.284139263614823 2.426180722806964 1.337712085544204 2.215753263409356
          2.6047288038188428 1.4563538358071424 2.1350697830806475 2.753472612891773 1.60865069769009 2.05053546307088
          2.86818060192971 1.7901747808330586 1.9708097418360837 2.9465020476704065 1.9948830939761237 1.904286333898432
          2.988096953027127 2.215451481618517 1.858629391845428 2.9946548353817897 2.4436793580176417 1.8403499840377502
          2.969801363585463 2.6709428728627764 1.8544462919350517 2.9188980029204337 2.888671466616205 1.9041274097927625
          2.8487457396751363 3.0888214809977415 1.9906360096026334 2.767209257559105 3.264320652821883 2.1131796708406334
          2.682782334029091 3.409458928387377 2.268974669751263 2.6041184727945543 3.5202040019538194 2.4533998083654667
          2.5395527098250024 3.594424141598831 2.660251782636117 2.496641017935333 3.632005989063471 2.8820879780072564
          2.4817427625251454 3.634860823947671 3.1106377494793533 2.4996692820343096 3.6068189460952613 3.3372594587687088
          2.5534180126147974 3.5534180126147956 3.553418012614797
          <InformationKey name="L2_NORM_RANGE" location="vtkDataArray" length="2">
            <Value index="0">
              1
            </Value>
            <Value index="1">
              5.6367989757
            </Value>
          </InformationKey>
        </DataArray>
      </Points>
      <Cells>
        <DataArray type="Int64" Name="connectivity" format="ascii" RangeMin="0" RangeMax="40">
          0 1 2 2 3 4
          4 5 6 6 7 8
          8 9 10 10 11 12
          12 13 14 14 15 16
          16 17 18 18 19 20
          20 21 22 22 23 24
          24 25 26 26 27 28
          28 29 30 30 31 32
          32 33 34 34 35 36
          36 37 38 38 39 40
        </DataArray>
        <DataArray type="Int64" Name="offsets" format="ascii" RangeMin="3" RangeMax="60">
          3 6 9 12 15 18
          21 24 27 30 33 36
          39 42 45 48 51 54
          57 60
        </DataArray>
        <DataArray type="UInt8" Name="types" format="ascii" RangeMin="4" RangeMax="4">
          4 4 4 4 4 4
          4 4 4 4 4 4
          4 4 4 4 4 4
          4 4
        </DataArray>
      </Cells>
    </Piece>
  </UnstructuredGrid>
</VTKFile>
