<?xml version="1.0"?>
<VTKFile type="UnstructuredGrid" version="0.1" byte_order="LittleEndian" header_type="UInt32" compressor="vtkZLibDataCompressor">
  <UnstructuredGrid>
    <Piece NumberOfPoints="132" NumberOfCells="25">
      <PointData Scalars="point_type">
        <DataArray type="Int64" Name="point_type" format="ascii" RangeMin="4" RangeMax="4">
          4 4 4 4 4 4
          4 4 4 4 4 4
          4 4 4 4 4 4
          4 4 4 4 4 4
          4 4 4 4 4 4
          4 4 4 4 4 4
          4 4 4 4 4 4
          4 4 4 4 4 4
          4 4 4 4 4 4
          4 4 4 4 4 4
          4 4 4 4 4 4
          4 4 4 4 4 4
          4 4 4 4 4 4
          4 4 4 4 4 4
          4 4 4 4 4 4
          4 4 4 4 4 4
          4 4 4 4 4 4
          4 4 4 4 4 4
          4 4 4 4 4 4
          4 4 4 4 4 4
          4 4 4 4 4 4
          4 4 4 4 4 4
        </DataArray>
        <DataArray type="Float64" Name="arc_length" format="ascii" RangeMin="0" RangeMax="3.0444155592006674">
          0 0.16784990864687854 0.3356998172937571 0.5035497259406356 0.6713996345875142 0.8392495432343926
          1.0070994518812713 0 0.750625 1.50125 2.251875 3.0025
          0 0.22015168689283307 0.44030337378566614 0.6604550606784992 0.8806067475713323 1.1007584344641652
          1.3209101213569985 0 0.7075 1.415 2.1225 2.83
          0 0.3264411195216068 0.6528822390432136 0.9793233585648204 1.3057644780864273 1.6322055976080339
          1.958646717129641 0 0.6643749999999999 1.3287499999999999 1.9931249999999998 2.6574999999999998
          0 0.43844023312510727 0.8768804662502145 1.315320699375322 1.753760932500429 2.1922011656255362
          2.630641398750644 0 0.62125 1.2425 1.86375 2.485
          0 0.5074025932001112 1.0148051864002223 1.5222077796003337 2.0296103728004447 2.537012966000556
          3.0444155592006674 0 0.578125 1.15625 1.734375 2.3125
          0 0.5057299916088285 1.011459983217657 1.5171899748264854 2.022919966435314 2.528649958044142
          3.034379949652971 0 0.5349999999999999 1.0699999999999998 1.6049999999999998 2.1399999999999997
          0 0.4412444140601893 0.8824888281203787 1.323733242180568 1.7649776562407573 2.2062220703009467
          2.647466484361136 0 0.491875 0.98375 1.475625 1.9675
          0 0.35623946283931274 0.7124789256786255 1.0687183885179383 1.424957851357251 1.7811973141965638
          2.1374367770358766 0 0.44875000000000004 0.8975000000000001 1.3462500000000002 1.7950000000000002
          0 0.30451229272219615 0.6090245854443923 0.9135368781665886 1.2180491708887846 1.5225614636109808
          1.8270737563331771 0 0.40562499999999996 0.8112499999999999 1.216875 1.6224999999999998
          0 0.307526802674605 0.61505360534921 0.9225804080238151 1.23010721069842 1.537634013373025
          1.8451608160476303 0 0.3625 0.725 1.0875 1.45
          0 0.3555791814134006 0.7111583628268012 1.0667375442402018 1.4223167256536025 1.7778959070670028
          2.1334750884804037 0 0.319375 0.63875 0.9581250000000001 1.2775
        </DataArray>
        <DataArray type="Float64" Name="rotation_vector" NumberOfComponents="3" format="ascii" RangeMin="1.5707978673455265" RangeMax="2.0943951023931953">
          1.5707954474537467 -0.001949655846318264 -0.001949655846318264 1.5707954474537467 -0.001949655846318264 -0.001949655846318264
          1.5707954474537467 -0.001949655846318264 -0.001949655846318264 1.5707954474537467 -0.001949655846318264 -0.001949655846318264
          1.5707954474537467 -0.001949655846318264 -0.001949655846318264 1.5707954474537467 -0.001949655846318264 -0.001949655846318264
          1.5707954474537467 -0.001949655846318264 -0.001949655846318264 1.2091995761561452 1.2091995761561452 1.2091995761561452
          1.2091995761561452 1.2091995761561452 1.2091995761561452 1.2091995761561452 1.2091995761561452 1.2091995761561452
          1.2091995761561452 1.2091995761561452 1.2091995761561452 1.2091995761561452 1.2091995761561452 1.2091995761561452
          1.5684191466276665 0.10134852279252428 0.10134852279252428 1.5684191466276665 0.10134852279252428 0.10134852279252428
          1.5684191466276665 0.10134852279252428 0.10134852279252428 1.5684191466276665 0.10134852279252428 0.10134852279252428
          1.5684191466276665 0.10134852279252428 0.10134852279252428 1.5684191466276665 0.10134852279252428 0.10134852279252428
          1.5684191466276665 0.10134852279252428 0.10134852279252428 1.2091995761561452 1.2091995761561452 1.2091995761561452
          1.2091995761561452 1.2091995761561452 1.2091995761561452 1.2091995761561452 1.2091995761561452 1.2091995761561452
          1.2091995761561452 1.2091995761561452 1.2091995761561452 1.2091995761561452 1.2091995761561452 1.2091995761561452
          1.5663862083508928 0.13801681913971217 0.13801681913971217 1.5663862083508928 0.13801681913971217 0.13801681913971217
          1.5663862083508928 0.13801681913971217 0.13801681913971217 1.5663862083508928 0.13801681913971217 0.13801681913971217
          1.5663862083508928 0.13801681913971217 0.13801681913971217 1.5663862083508928 0.13801681913971217 0.13801681913971217
          1.5663862083508928 0.13801681913971217 0.13801681913971217 1.2091995761561452 1.2091995761561452 1.2091995761561452
          1.2091995761561452 1.2091995761561452 1.2091995761561452 1.2091995761561452 1.2091995761561452 1.2091995761561452
          1.2091995761561452 1.2091995761561452 1.2091995761561452 1.2091995761561452 1.2091995761561452 1.2091995761561452
          1.5652536444939085 0.15471149692414776 0.15471149692414776 1.5652536444939085 0.15471149692414776 0.15471149692414776
          1.5652536444939085 0.15471149692414776 0.15471149692414776 1.5652536444939085 0.15471149692414776 0.15471149692414776
          1.5652536444939085 0.15471149692414776 0.15471149692414776 1.5652536444939085 0.15471149692414776 0.15471149692414776
          1.5652536444939085 0.15471149692414776 0.15471149692414776 1.2091995761561452 1.2091995761561452 1.2091995761561452
          1.2091995761561452 1.2091995761561452 1.2091995761561452 1.2091995761561452 1.2091995761561452 1.2091995761561452
          1.2091995761561452 1.2091995761561452 1.2091995761561452 1.2091995761561452 1.2091995761561452 1.2091995761561452
          1.5633879428054327 0.17883452228670516 0.17883452228670516 1.5633879428054327 0.17883452228670516 0.17883452228670516
          1.5633879428054327 0.17883452228670516 0.17883452228670516 1.5633879428054327 0.17883452228670516 0.17883452228670516
          1.5633879428054327 0.17883452228670516 0.17883452228670516 1.5633879428054327 0.17883452228670516 0.17883452228670516
          1.5633879428054327 0.17883452228670516 0.17883452228670516 1.2091995761561452 1.2091995761561452 1.2091995761561452
          1.2091995761561452 1.2091995761561452 1.2091995761561452 1.2091995761561452 1.2091995761561452 1.2091995761561452
          1.2091995761561452 1.2091995761561452 1.2091995761561452 1.2091995761561452 1.2091995761561452 1.2091995761561452
          1.55900269741331 0.22554943781205125 0.22554943781205125 1.55900269741331 0.22554943781205125 0.22554943781205125
          1.55900269741331 0.22554943781205125 0.22554943781205125 1.55900269741331 0.22554943781205125 0.22554943781205125
          1.55900269741331 0.22554943781205125 0.22554943781205125 1.55900269741331 0.22554943781205125 0.22554943781205125
          1.55900269741331 0.22554943781205125 0.22554943781205125 1.2091995761561452 1.2091995761561452 1.2091995761561452
          1.2091995761561452 1.2091995761561452 1.2091995761561452 1.2091995761561452 1.2091995761561452 1.2091995761561452
          1.2091995761561452 1.2091995761561452 1.2091995761561452 1.2091995761561452 1.2091995761561452 1.2091995761561452
          1.5478536246191945 0.31427044492244743 0.31427044492244743 1.5478536246191945 0.31427044492244743 0.31427044492244743
          1.5478536246191945 0.31427044492244743 0.31427044492244743 1.5478536246191945 0.31427044492244743 0.31427044492244743
          1.5478536246191945 0.31427044492244743 0.31427044492244743 1.5478536246191945 0.31427044492244743 0.31427044492244743
          1.5478536246191945 0.31427044492244743 0.31427044492244743 1.2091995761561452 1.2091995761561452 1.2091995761561452
          1.2091995761561452 1.2091995761561452 1.2091995761561452 1.2091995761561452 1.2091995761561452 1.2091995761561452
          1.2091995761561452 1.2091995761561452 1.2091995761561452 1.2091995761561452 1.2091995761561452 1.2091995761561452
          1.519411185552289 0.46911876210755016 0.46911876210755016 1.519411185552289 0.46911876210755016 0.46911876210755016
          1.519411185552289 0.46911876210755016 0.46911876210755016 1.519411185552289 0.46911876210755016 0.46911876210755016
          1.519411185552289 0.46911876210755016 0.46911876210755016 1.519411185552289 0.46911876210755016 0.46911876210755016
          1.519411185552289 0.46911876210755016 0.46911876210755016 1.2091995761561452 1.2091995761561452 1.2091995761561452
          1.2091995761561452 1.2091995761561452 1.2091995761561452 1.2091995761561452 1.2091995761561452 1.2091995761561452
          1.2091995761561452 1.2091995761561452 1.2091995761561452 1.2091995761561452 1.2091995761561452 1.2091995761561452
          1.4658994629978166 0.6670085708377257 0.6670085708377257 1.4658994629978166 0.6670085708377257 0.6670085708377257
          1.4658994629978166 0.6670085708377257 0.6670085708377257 1.4658994629978166 0.6670085708377257 0.6670085708377257
          1.4658994629978166 0.6670085708377257 0.6670085708377257 1.4658994629978166 0.6670085708377257 0.6670085708377257
          1.4658994629978166 0.6670085708377257 0.6670085708377257 1.2091995761561452 1.2091995761561452 1.2091995761561452
          1.2091995761561452 1.2091995761561452 1.2091995761561452 1.2091995761561452 1.2091995761561452 1.2091995761561452
          1.2091995761561452 1.2091995761561452 1.2091995761561452 1.2091995761561452 1.2091995761561452 1.2091995761561452
          1.4273322971397486 0.7772995303471257 0.7772995303471257 1.4273322971397486 0.7772995303471257 0.7772995303471257
          1.4273322971397486 0.7772995303471257 0.7772995303471257 1.4273322971397486 0.7772995303471257 0.7772995303471257
          1.4273322971397486 0.7772995303471257 0.7772995303471257 1.4273322971397486 0.7772995303471257 0.7772995303471257
          1.4273322971397486 0.7772995303471257 0.7772995303471257 1.2091995761561452 1.2091995761561452 1.2091995761561452
          1.2091995761561452 1.2091995761561452 1.2091995761561452 1.2091995761561452 1.2091995761561452 1.2091995761561452
          1.2091995761561452 1.2091995761561452 1.2091995761561452 1.2091995761561452 1.2091995761561452 1.2091995761561452
          1.443596750066226 0.7330056758891732 0.7330056758891732 1.443596750066226 0.7330056758891732 0.7330056758891732
          1.443596750066226 0.7330056758891732 0.7330056758891732 1.443596750066226 0.7330056758891732 0.7330056758891732
          1.443596750066226 0.7330056758891732 0.7330056758891732 1.443596750066226 0.7330056758891732 0.7330056758891732
          1.443596750066226 0.7330056758891732 0.7330056758891732 1.2091995761561452 1.2091995761561452 1.2091995761561452
          1.2091995761561452 1.2091995761561452 1.2091995761561452 1.2091995761561452 1.2091995761561452 1.2091995761561452
          1.2091995761561452 1.2091995761561452 1.2091995761561452 1.2091995761561452 1.2091995761561452 1.2091995761561452
          <InformationKey name="L2_NORM_RANGE" location="vtkDataArray" length="2">
            <Value index="0">
              1.5707978673
            </Value>
            <Value index="1">
              2.0943951024
            </Value>
          </InformationKey>
        </DataArray>
        <DataArray type="Float64" Name="time" format="ascii" RangeMin="1.69" RangeMax="8.59">
          1.69 1.69 1.69 1.69 1.69 1.69
          1.69 1.69 1.69 1.69 1.69 1.69
          2.38 2.38 2.38 2.38 2.38 2.38
          2.38 2.38 2.38 2.38 2.38 2.38
          3.0700000000000003 3.0700000000000003 3.0700000000000003 3.0700000000000003 3.0700000000000003 3.0700000000000003
          3.0700000000000003 3.0700000000000003 3.0700000000000003 3.0700000000000003 3.0700000000000003 3.0700000000000003
          3.7600000000000002 3.7600000000000002 3.7600000000000002 3.7600000000000002 3.7600000000000002 3.7600000000000002
          3.7600000000000002 3.7600000000000002 3.7600000000000002 3.7600000000000002 3.7600000000000002 3.7600000000000002
          4.45 4.45 4.45 4.45 4.45 4.45
          4.45 4.45 4.45 4.45 4.45 4.45
          5.140000000000001 5.140000000000001 5.140000000000001 5.140000000000001 5.140000000000001 5.140000000000001
          5.140000000000001 5.140000000000001 5.140000000000001 5.140000000000001 5.140000000000001 5.140000000000001
          5.83 5.83 5.83 5.83 5.83 5.83
          5.83 5.83 5.83 5.83 5.83 5.83
          6.52 6.52 6.52 6.52 6.52 6.52
          6.52 6.52 6.52 6.52 6.52 6.52
          7.210000000000001 7.210000000000001 7.210000000000001 7.210000000000001 7.210000000000001 7.210000000000001
          7.210000000000001 7.210000000000001 7.210000000000001 7.210000000000001 7.210000000000001 7.210000000000001
          7.9 7.9 7.9 7.9 7.9 7.9
          7.9 7.9 7.9 7.9 7.9 7.9
          8.59 8.59 8.59 8.59 8.59 8.59
          8.59 8.59 8.59 8.59 8.59 8.59
        </DataArray>
        <DataArray type="Int64" Name="geometry_set_0_line" format="ascii" RangeMin="0" RangeMax="1">
          0 0 0 0 0 0
          0 0 0 0 0 0
          0 0 0 0 0 0
          0 0 0 0 0 0
          0 0 0 0 0 0
          0 0 0 0 0 0
          0 0 0 0 0 0
          0 0 0 0 0 0
          0 0 0 0 0 0
          0 0 0 0 0 0
          0 0 0 0 0 0
          0 0 0 0 0 0
          0 0 0 0 0 0
          0 0 0 0 0 0
          0 0 0 0 0 0
          0 0 0 0 0 0
          0 0 0 0 0 0
          0 0 0 0 0 0
          0 0 0 0 0 0
          0 0 0 0 0 0
          1 1 1 1 1 1
          1 1 1 1 1 1
        </DataArray>
        <DataArray type="Int64" Name="geometry_set_1_line" format="ascii" RangeMin="0" RangeMax="1">
          1 1 1 1 1 1
          1 1 1 1 1 1
          0 0 0 0 0 0
          0 0 0 0 0 0
          0 0 0 0 0 0
          0 0 0 0 0 0
          0 0 0 0 0 0
          0 0 0 0 0 0
          0 0 0 0 0 0
          0 0 0 0 0 0
          0 0 0 0 0 0
          0 0 0 0 0 0
          0 0 0 0 0 0
          0 0 0 0 0 0
          0 0 0 0 0 0
          0 0 0 0 0 0
          0 0 0 0 0 0
          0 0 0 0 0 0
          0 0 0 0 0 0
          0 0 0 0 0 0
          0 0 0 0 0 0
          0 0 0 0 0 0
        </DataArray>
        <DataArray type="Int64" Name="geometry_set_2_surface" format="ascii" RangeMin="1" RangeMax="1">
          1 1 1 1 1 1
          1 1 1 1 1 1
          1 1 1 1 1 1
          1 1 1 1 1 1
          1 1 1 1 1 1
          1 1 1 1 1 1
          1 1 1 1 1 1
          1 1 1 1 1 1
          1 1 1 1 1 1
          1 1 1 1 1 1
          1 1 1 1 1 1
          1 1 1 1 1 1
          1 1 1 1 1 1
          1 1 1 1 1 1
          1 1 1 1 1 1
          1 1 1 1 1 1
          1 1 1 1 1 1
          1 1 1 1 1 1
          1 1 1 1 1 1
          1 1 1 1 1 1
          1 1 1 1 1 1
          1 1 1 1 1 1
        </DataArray>
      </PointData>
      <CellData Scalars="element_type_id">
        <DataArray type="Int64" Name="element_type_id" format="ascii" RangeMin="0" RangeMax="0">
          0 0 0 0 0 0
          0 0 0 0 0 0
          0 0 0 0 0 0
          0 0 0 0 0 0
          0
        </DataArray>
        <DataArray type="Int64" Name="material_id" format="ascii" RangeMin="-1" RangeMax="-1">
          -1 -1 -1 -1 -1 -1
          -1 -1 -1 -1 -1 -1
          -1 -1 -1 -1 -1 -1
          -1 -1 -1 -1 -1 -1
          -1
        </DataArray>
        <DataArray type="Int64" Name="beamme_id" format="ascii" RangeMin="0" RangeMax="24">
          0 1 2 3 4 5
          6 7 8 9 10 11
          12 13 14 15 16 17
          18 19 20 21 22 23
          24
        </DataArray>
        <DataArray type="Float64" Name="rotation_vector" NumberOfComponents="27" format="ascii" RangeMin="4.724262051628616" RangeMax="6.283185307179585">
          1.5707954474537467 -0.001949655846318264 -0.001949655846318264 1.5707954474537467 -0.001949655846318264 -0.001949655846318264
          1.5663862083508928 0.13801681913971217 0.13801681913971217 1.5663862083508928 0.13801681913971217 0.13801681913971217
          1.5707954474537467 -0.001949655846318264 -0.001949655846318264 1.5684191466276665 0.10134852279252428 0.10134852279252428
          1.5663862083508928 0.13801681913971217 0.13801681913971217 1.5684191466276665 0.10134852279252428 0.10134852279252428
          1.5684191466276665 0.10134852279252428 0.10134852279252428 1.5707954474537467 -0.001949655846318264 -0.001949655846318264
          1.5707954474537467 -0.001949655846318264 -0.001949655846318264 1.5663862083508928 0.13801681913971217 0.13801681913971217
          1.5663862083508928 0.13801681913971217 0.13801681913971217 1.5707954474537467 -0.001949655846318264 -0.001949655846318264
          1.5684191466276665 0.10134852279252428 0.10134852279252428 1.5663862083508928 0.13801681913971217 0.13801681913971217
          1.5684191466276665 0.10134852279252428 0.10134852279252428 1.5684191466276665 0.10134852279252428 0.10134852279252428
          1.5707954474537467 -0.001949655846318264 -0.001949655846318264 1.5707954474537467 -0.001949655846318264 -0.001949655846318264
          1.5663862083508928 0.13801681913971217 0.13801681913971217 1.5663862083508928 0.13801681913971217 0.13801681913971217
          1.5707954474537467 -0.001949655846318264 -0.001949655846318264 1.5684191466276665 0.10134852279252428 0.10134852279252428
          1.5663862083508928 0.13801681913971217 0.13801681913971217 1.5684191466276665 0.10134852279252428 0.10134852279252428
          1.5684191466276665 0.10134852279252428 0.10134852279252428 1.2091995761561452 1.2091995761561452 1.2091995761561452
          1.2091995761561452 1.2091995761561452 1.2091995761561452 1.2091995761561452 1.2091995761561452 1.2091995761561452
          1.2091995761561452 1.2091995761561452 1.2091995761561452 1.2091995761561452 1.2091995761561452 1.2091995761561452
          1.2091995761561452 1.2091995761561452 1.2091995761561452 1.2091995761561452 1.2091995761561452 1.2091995761561452
          1.2091995761561452 1.2091995761561452 1.2091995761561452 1.2091995761561452 1.2091995761561452 1.2091995761561452
          1.2091995761561452 1.2091995761561452 1.2091995761561452 1.2091995761561452 1.2091995761561452 1.2091995761561452
          1.2091995761561452 1.2091995761561452 1.2091995761561452 1.2091995761561452 1.2091995761561452 1.2091995761561452
          1.2091995761561452 1.2091995761561452 1.2091995761561452 1.2091995761561452 1.2091995761561452 1.2091995761561452
          1.2091995761561452 1.2091995761561452 1.2091995761561452 1.2091995761561452 1.2091995761561452 1.2091995761561452
          1.2091995761561452 1.2091995761561452 1.2091995761561452 1.5663862083508928 0.13801681913971217 0.13801681913971217
          1.5663862083508928 0.13801681913971217 0.13801681913971217 1.5633879428054327 0.17883452228670516 0.17883452228670516
          1.5633879428054327 0.17883452228670516 0.17883452228670516 1.5663862083508928 0.13801681913971217 0.13801681913971217
          1.5652536444939085 0.15471149692414776 0.15471149692414776 1.5633879428054327 0.17883452228670516 0.17883452228670516
          1.5652536444939085 0.15471149692414776 0.15471149692414776 1.5652536444939085 0.15471149692414776 0.15471149692414776
          1.5663862083508928 0.13801681913971217 0.13801681913971217 1.5663862083508928 0.13801681913971217 0.13801681913971217
          1.5633879428054327 0.17883452228670516 0.17883452228670516 1.5633879428054327 0.17883452228670516 0.17883452228670516
          1.5663862083508928 0.13801681913971217 0.13801681913971217 1.5652536444939085 0.15471149692414776 0.15471149692414776
          1.5633879428054327 0.17883452228670516 0.17883452228670516 1.5652536444939085 0.15471149692414776 0.15471149692414776
          1.5652536444939085 0.15471149692414776 0.15471149692414776 1.5663862083508928 0.13801681913971217 0.13801681913971217
          1.5663862083508928 0.13801681913971217 0.13801681913971217 1.5633879428054327 0.17883452228670516 0.17883452228670516
          1.5633879428054327 0.17883452228670516 0.17883452228670516 1.5663862083508928 0.13801681913971217 0.13801681913971217
          1.5652536444939085 0.15471149692414776 0.15471149692414776 1.5633879428054327 0.17883452228670516 0.17883452228670516
          1.5652536444939085 0.15471149692414776 0.15471149692414776 1.5652536444939085 0.15471149692414776 0.15471149692414776
          1.2091995761561452 1.2091995761561452 1.2091995761561452 1.2091995761561452 1.2091995761561452 1.2091995761561452
          1.2091995761561452 1.2091995761561452 1.2091995761561452 1.2091995761561452 1.2091995761561452 1.2091995761561452
          1.2091995761561452 1.2091995761561452 1.2091995761561452 1.2091995761561452 1.2091995761561452 1.2091995761561452
          1.2091995761561452 1.2091995761561452 1.2091995761561452 1.2091995761561452 1.2091995761561452 1.2091995761561452
          1.2091995761561452 1.2091995761561452 1.2091995761561452 1.2091995761561452 1.2091995761561452 1.2091995761561452
          1.2091995761561452 1.2091995761561452 1.2091995761561452 1.2091995761561452 1.2091995761561452 1.2091995761561452
          1.2091995761561452 1.2091995761561452 1.2091995761561452 1.2091995761561452 1.2091995761561452 1.2091995761561452
          1.2091995761561452 1.2091995761561452 1.2091995761561452 1.2091995761561452 1.2091995761561452 1.2091995761561452
          1.2091995761561452 1.2091995761561452 1.2091995761561452 1.2091995761561452 1.2091995761561452 1.2091995761561452
          1.5633879428054327 0.17883452228670516 0.17883452228670516 1.5633879428054327 0.17883452228670516 0.17883452228670516
          1.5478536246191945 0.31427044492244743 0.31427044492244743 1.5478536246191945 0.31427044492244743 0.31427044492244743
          1.5633879428054327 0.17883452228670516 0.17883452228670516 1.55900269741331 0.22554943781205125 0.22554943781205125
          1.5478536246191945 0.31427044492244743 0.31427044492244743 1.55900269741331 0.22554943781205125 0.22554943781205125
          1.55900269741331 0.22554943781205125 0.22554943781205125 1.5633879428054327 0.17883452228670516 0.17883452228670516
          1.5633879428054327 0.17883452228670516 0.17883452228670516 1.5478536246191945 0.31427044492244743 0.31427044492244743
          1.5478536246191945 0.31427044492244743 0.31427044492244743 1.5633879428054327 0.17883452228670516 0.17883452228670516
          1.55900269741331 0.22554943781205125 0.22554943781205125 1.5478536246191945 0.31427044492244743 0.31427044492244743
          1.55900269741331 0.22554943781205125 0.22554943781205125 1.55900269741331 0.22554943781205125 0.22554943781205125
          1.5633879428054327 0.17883452228670516 0.17883452228670516 1.5633879428054327 0.17883452228670516 0.17883452228670516
          1.5478536246191945 0.31427044492244743 0.31427044492244743 1.5478536246191945 0.31427044492244743 0.31427044492244743
          1.5633879428054327 0.17883452228670516 0.17883452228670516 1.55900269741331 0.22554943781205125 0.22554943781205125
          1.5478536246191945 0.31427044492244743 0.31427044492244743 1.55900269741331 0.22554943781205125 0.22554943781205125
          1.55900269741331 0.22554943781205125 0.22554943781205125 1.2091995761561452 1.2091995761561452 1.2091995761561452
          1.2091995761561452 1.2091995761561452 1.2091995761561452 1.2091995761561452 1.2091995761561452 1.2091995761561452
          1.2091995761561452 1.2091995761561452 1.2091995761561452 1.2091995761561452 1.2091995761561452 1.2091995761561452
          1.2091995761561452 1.2091995761561452 1.2091995761561452 1.2091995761561452 1.2091995761561452 1.2091995761561452
          1.2091995761561452 1.2091995761561452 1.2091995761561452 1.2091995761561452 1.2091995761561452 1.2091995761561452
          1.2091995761561452 1.2091995761561452 1.2091995761561452 1.2091995761561452 1.2091995761561452 1.2091995761561452
          1.2091995761561452 1.2091995761561452 1.2091995761561452 1.2091995761561452 1.2091995761561452 1.2091995761561452
          1.2091995761561452 1.2091995761561452 1.2091995761561452 1.2091995761561452 1.2091995761561452 1.2091995761561452
          1.2091995761561452 1.2091995761561452 1.2091995761561452 1.2091995761561452 1.2091995761561452 1.2091995761561452
          1.2091995761561452 1.2091995761561452 1.2091995761561452 1.5478536246191945 0.31427044492244743 0.31427044492244743
          1.5478536246191945 0.31427044492244743 0.31427044492244743 1.4658994629978166 0.6670085708377257 0.6670085708377257
          1.4658994629978166 0.6670085708377257 0.6670085708377257 1.5478536246191945 0.31427044492244743 0.31427044492244743
          1.519411185552289 0.46911876210755016 0.46911876210755016 1.4658994629978166 0.6670085708377257 0.6670085708377257
          1.519411185552289 0.46911876210755016 0.46911876210755016 1.519411185552289 0.46911876210755016 0.46911876210755016
          1.5478536246191945 0.31427044492244743 0.31427044492244743 1.5478536246191945 0.31427044492244743 0.31427044492244743
          1.4658994629978166 0.6670085708377257 0.6670085708377257 1.4658994629978166 0.6670085708377257 0.6670085708377257
          1.5478536246191945 0.31427044492244743 0.31427044492244743 1.519411185552289 0.46911876210755016 0.46911876210755016
          1.4658994629978166 0.6670085708377257 0.6670085708377257 1.519411185552289 0.46911876210755016 0.46911876210755016
          1.519411185552289 0.46911876210755016 0.46911876210755016 1.5478536246191945 0.31427044492244743 0.31427044492244743
          1.5478536246191945 0.31427044492244743 0.31427044492244743 1.4658994629978166 0.6670085708377257 0.6670085708377257
          1.4658994629978166 0.6670085708377257 0.6670085708377257 1.5478536246191945 0.31427044492244743 0.31427044492244743
          1.519411185552289 0.46911876210755016 0.46911876210755016 1.4658994629978166 0.6670085708377257 0.6670085708377257
          1.519411185552289 0.46911876210755016 0.46911876210755016 1.519411185552289 0.46911876210755016 0.46911876210755016
          1.2091995761561452 1.2091995761561452 1.2091995761561452 1.2091995761561452 1.2091995761561452 1.2091995761561452
          1.2091995761561452 1.2091995761561452 1.2091995761561452 1.2091995761561452 1.2091995761561452 1.2091995761561452
          1.2091995761561452 1.2091995761561452 1.2091995761561452 1.2091995761561452 1.2091995761561452 1.2091995761561452
          1.2091995761561452 1.2091995761561452 1.2091995761561452 1.2091995761561452 1.2091995761561452 1.2091995761561452
          1.2091995761561452 1.2091995761561452 1.2091995761561452 1.2091995761561452 1.2091995761561452 1.2091995761561452
          1.2091995761561452 1.2091995761561452 1.2091995761561452 1.2091995761561452 1.2091995761561452 1.2091995761561452
          1.2091995761561452 1.2091995761561452 1.2091995761561452 1.2091995761561452 1.2091995761561452 1.2091995761561452
          1.2091995761561452 1.2091995761561452 1.2091995761561452 1.2091995761561452 1.2091995761561452 1.2091995761561452
          1.2091995761561452 1.2091995761561452 1.2091995761561452 1.2091995761561452 1.2091995761561452 1.2091995761561452
          1.4658994629978166 0.6670085708377257 0.6670085708377257 1.4658994629978166 0.6670085708377257 0.6670085708377257
          1.443596750066226 0.7330056758891732 0.7330056758891732 1.443596750066226 0.7330056758891732 0.7330056758891732
          1.4658994629978166 0.6670085708377257 0.6670085708377257 1.4273322971397486 0.7772995303471257 0.7772995303471257
          1.443596750066226 0.7330056758891732 0.7330056758891732 1.4273322971397486 0.7772995303471257 0.7772995303471257
          1.4273322971397486 0.7772995303471257 0.7772995303471257 1.4658994629978166 0.6670085708377257 0.6670085708377257
          1.4658994629978166 0.6670085708377257 0.6670085708377257 1.443596750066226 0.7330056758891732 0.7330056758891732
          1.443596750066226 0.7330056758891732 0.7330056758891732 1.4658994629978166 0.6670085708377257 0.6670085708377257
          1.4273322971397486 0.7772995303471257 0.7772995303471257 1.443596750066226 0.7330056758891732 0.7330056758891732
          1.4273322971397486 0.7772995303471257 0.7772995303471257 1.4273322971397486 0.7772995303471257 0.7772995303471257
          1.4658994629978166 0.6670085708377257 0.6670085708377257 1.4658994629978166 0.6670085708377257 0.6670085708377257
          1.443596750066226 0.7330056758891732 0.7330056758891732 1.443596750066226 0.7330056758891732 0.7330056758891732
          1.4658994629978166 0.6670085708377257 0.6670085708377257 1.4273322971397486 0.7772995303471257 0.7772995303471257
          1.443596750066226 0.7330056758891732 0.7330056758891732 1.4273322971397486 0.7772995303471257 0.7772995303471257
          1.4273322971397486 0.7772995303471257 0.7772995303471257 1.2091995761561452 1.2091995761561452 1.2091995761561452
          1.2091995761561452 1.2091995761561452 1.2091995761561452 1.2091995761561452 1.2091995761561452 1.2091995761561452
          1.2091995761561452 1.2091995761561452 1.2091995761561452 1.2091995761561452 1.2091995761561452 1.2091995761561452
          1.2091995761561452 1.2091995761561452 1.2091995761561452 1.2091995761561452 1.2091995761561452 1.2091995761561452
          1.2091995761561452 1.2091995761561452 1.2091995761561452 1.2091995761561452 1.2091995761561452 1.2091995761561452
          1.2091995761561452 1.2091995761561452 1.2091995761561452 1.2091995761561452 1.2091995761561452 1.2091995761561452
          1.2091995761561452 1.2091995761561452 1.2091995761561452 1.2091995761561452 1.2091995761561452 1.2091995761561452