<?xml version="1.0"?>
<VTKFile type="UnstructuredGrid" version="0.1" byte_order="LittleEndian" header_type="UInt32" compressor="vtkZLibDataCompressor">
  <UnstructuredGrid>
    <Piece NumberOfPoints="77" NumberOfCells="15">
      <PointData Scalars="point_type">
        <DataArray type="Int64" Name="point_type" format="ascii" RangeMin="4" RangeMax="4">
          4 4 4 4 4 4
          4 4 4 4 4 4
          4 4 4 4 4 4
          4 4 4 4 4 4
          4 4 4 4 4 4
          4 4 4 4 4 4
          4 4 4 4 4 4
          4 4 4 4 4 4
          4 4 4 4 4 4
          4 4 4 4 4 4
          4 4 4 4 4 4
          4 4 4 4 4 4
          4 4 4 4 4
        </DataArray>
        <DataArray type="Float64" Name="rotation_vector" NumberOfComponents="3" format="ascii" RangeMin="0" RangeMax="0">
          0 0 0 0 0 0
          0 0 0 0 0 0
          0 0 0 0 0 0
          0 0 0 0 0 0
          0 0 0 0 0 0
          0 0 0 0 0 0
          0 0 0 0 0 0
          0 0 0 0 0 0
          0 0 0 0 0 0
          0 0 0 0 0 0
          0 0 0 0 0 0
          0 0 0 0 0 0
          0 0 0 0 0 0
          0 0 0 0 0 0
          0 0 0 0 0 0
          0 0 0 0 0 0
          0 0 0 0 0 0
          0 0 0 0 0 0
          0 0 0 0 0 0
          0 0 0 0 0 0
          0 0 0 0 0 0
          0 0 0 0 0 0
          0 0 0 0 0 0
          0 0 0 0 0 0
          0 0 0 0 0 0
          0 0 0 0 0 0
          0 0 0 0 0 0
          0 0 0 0 0 0
          0 0 0 0 0 0
          0 0 0 0 0 0
          0 0 0 0 0 0
          0 0 0 0 0 0
          0 0 0 0 0 0
          0 0 0 0 0 0
          0 0 0 0 0 0
          0 0 0 0 0 0
          0 0 0 0 0 0
          0 0 0 0 0 0
          0 0 0
          <InformationKey name="L2_NORM_RANGE" location="vtkDataArray" length="2">
            <Value index="0">
              0
            </Value>
            <Value index="1">
              0
            </Value>
          </InformationKey>
        </DataArray>
        <DataArray type="Float64" Name="time" format="ascii" RangeMin="2.5" RangeMax="9.4">
          2.5 2.5 2.5 2.5 2.5 2.5
          2.5 3.19 3.19 3.19 3.19 3.19
          3.19 3.19 3.88 3.88 3.88 3.88
          3.88 3.88 3.88 4.57 4.57 4.57
          4.57 4.57 4.57 4.57 5.26 5.26
          5.26 5.26 5.26 5.26 5.26 5.95
          5.95 5.95 5.95 5.95 5.95 5.95
          6.640000000000001 6.640000000000001 6.640000000000001 6.640000000000001 6.640000000000001 6.640000000000001
          6.640000000000001 7.33 7.33 7.33 7.33 7.33
          7.33 7.33 8.02 8.02 8.02 8.02
          8.02 8.02 8.02 8.71 8.71 8.71
          8.71 8.71 8.71 8.71 9.4 9.4
          9.4 9.4 9.4 9.4 9.4
        </DataArray>
        <DataArray type="Int64" Name="geometry_set_0_point" format="ascii" RangeMin="0" RangeMax="1">
          0 0 0 0 0 0
          0 0 0 0 0 0
          0 0 0 0 0 0
          0 0 0 0 0 0
          0 0 0 0 0 0
          0 0 0 0 0 0
          0 0 0 0 0 0
          0 0 0 0 0 0
          0 0 0 0 0 0
          0 0 0 0 0 0
          0 0 0 0 0 0
          0 0 0 0 1 1
          1 1 1 1 1
        </DataArray>
        <DataArray type="Int64" Name="geometry_set_1_point" format="ascii" RangeMin="0" RangeMax="1">
          1 0 0 0 0 0
          0 1 0 0 0 0
          0 0 1 0 0 0
          0 0 0 1 0 0
          0 0 0 0 1 0
          0 0 0 0 0 1
          0 0 0 0 0 0
          1 0 0 0 0 0
          0 1 0 0 0 0
          0 0 1 0 0 0
          0 0 0 1 0 0
          0 0 0 0 1 0
          0 0 0 0 0
        </DataArray>
        <DataArray type="Int64" Name="geometry_set_2_point" format="ascii" RangeMin="0" RangeMax="1">
          0 0 0 0 0 0
          1 0 0 0 0 0
          0 1 0 0 0 0
          0 0 1 0 0 0
          0 0 0 1 0 0
          0 0 0 0 1 0
          0 0 0 0 0 1
          0 0 0 0 0 0
          1 0 0 0 0 0
          0 1 0 0 0 0
          0 0 1 0 0 0
          0 0 0 1 0 0
          0 0 0 0 1
        </DataArray>
        <DataArray type="Int64" Name="geometry_set_3_point" format="ascii" RangeMin="0" RangeMax="1">
          1 1 1 1 1 1
          1 0 0 0 0 0
          0 0 0 0 0 0
          0 0 0 0 0 0
          0 0 0 0 0 0
          0 0 0 0 0 0
          0 0 0 0 0 0
          0 0 0 0 0 0
          0 0 0 0 0 0
          0 0 0 0 0 0
          0 0 0 0 0 0
          0 0 0 0 0 0
          0 0 0 0 0
        </DataArray>
        <DataArray type="Int64" Name="geometry_set_4_surface" format="ascii" RangeMin="1" RangeMax="1">
          1 1 1 1 1 1
          1 1 1 1 1 1
          1 1 1 1 1 1
          1 1 1 1 1 1
          1 1 1 1 1 1
          1 1 1 1 1 1
          1 1 1 1 1 1
          1 1 1 1 1 1
          1 1 1 1 1 1
          1 1 1 1 1 1
          1 1 1 1 1 1
          1 1 1 1 1 1
          1 1 1 1 1
        </DataArray>
      </PointData>
      <CellData Scalars="element_type_id">
        <DataArray type="Int64" Name="element_type_id" format="ascii" RangeMin="0" RangeMax="0">
          0 0 0 0 0 0
          0 0 0 0 0 0
          0 0 0
        </DataArray>
        <DataArray type="Int64" Name="material_id" format="ascii" RangeMin="-1" RangeMax="-1">
          -1 -1 -1 -1 -1 -1
          -1 -1 -1 -1 -1 -1
          -1 -1 -1
        </DataArray>
        <DataArray type="Int64" Name="beamme_id" format="ascii" RangeMin="0" RangeMax="14">
          0 1 2 3 4 5
          6 7 8 9 10 11
          12 13 14
        </DataArray>
        <DataArray type="Float64" Name="rotation_vector" NumberOfComponents="27" format="ascii" RangeMin="0" RangeMax="0">
          0 0 0 0 0 0
          0 0 0 0 0 0
          0 0 0 0 0 0
          0 0 0 0 0 0
          0 0 0 0 0 0
          0 0 0 0 0 0
          0 0 0 0 0 0
          0 0 0 0 0 0
          0 0 0 0 0 0
          0 0 0 0 0 0
          0 0 0 0 0 0
          0 0 0 0 0 0
          0 0 0 0 0 0
          0 0 0 0 0 0
          0 0 0 0 0 0
          0 0 0 0 0 0
          0 0 0 0 0 0
          0 0 0 0 0 0
          0 0 0 0 0 0
          0 0 0 0 0 0
          0 0 0 0 0 0
          0 0 0 0 0 0
          0 0 0 0 0 0
          0 0 0 0 0 0
          0 0 0 0 0 0
          0 0 0 0 0 0
          0 0 0 0 0 0
          0 0 0 0 0 0
          0 0 0 0 0 0
          0 0 0 0 0 0
          0 0 0 0 0 0
          0 0 0 0 0 0
          0 0 0 0 0 0
          0 0 0 0 0 0
          0 0 0 0 0 0
          0 0 0 0 0 0
          0 0 0 0 0 0
          0 0 0 0 0 0
          0 0 0 0 0 0
          0 0 0 0 0 0
          0 0 0 0 0 0
          0 0 0 0 0 0
          0 0 0 0 0 0
          0 0 0 0 0 0
          0 0 0 0 0 0
          0 0 0 0 0 0
          0 0 0 0 0 0
          0 0 0 0 0 0
          0 0 0 0 0 0
          0 0 0 0 0 0
          0 0 0 0 0 0
          0 0 0 0 0 0
          0 0 0 0 0 0
          0 0 0 0 0 0
          0 0 0 0 0 0
          0 0 0 0 0 0
          0 0 0 0 0 0
          0 0 0 0 0 0
          0 0 0 0 0 0
          0 0 0 0 0 0
          0 0 0 0 0 0
          0 0 0 0 0 0
          0 0 0 0 0 0
          0 0 0 0 0 0
          0 0 0 0 0 0
          0 0 0 0 0 0
          0 0 0 0 0 0
          0 0 0
          <InformationKey name="L2_NORM_RANGE" location="vtkDataArray" length="2">
            <Value index="0">
              0
            </Value>
            <Value index="1">
              0
            </Value>
          </InformationKey>
        </DataArray>
      </CellData>
      <Points>
        <DataArray type="Float64" Name="Points" NumberOfComponents="3" format="ascii" RangeMin="0" RangeMax="6">
          0 0 0 1 0 0
          2 0 0 3 0 0
          4 0 0 5 0 0
          6 0 0 0 0 0
          1 0 0 2 0 0
          3 0 0 4 0 0
          5 0 0 6 0 0
          0 0 0 1 0 0
          2 0 0 3 0 0
          4 0 0 5 0 0
          6 0 0 0 0 0
          1 0 0 2 0 0
          3 0 0 4 0 0
          5 0 0 6 0 0
          0 0 0 1 0 0
          2 0 0 3 0 0
          4 0 0 5 0 0
          6 0 0 0 0 0
          1 0 0 2 0 0
          3 0 0 4 0 0
          5 0 0 6 0 0
          0 0 0 1 0 0
          2 0 0 3 0 0
          4 0 0 5 0 0
          6 0 0 0 0 0
          1 0 0 2 0 0
          3 0 0 4 0 0
          5 0 0 6 0 0
          0 0 0 1 0 0
          2 0 0 3 0 0
          4 0 0 5 0 0
          6 0 0 0 0 0
          1 0 0 2 0 0
          3 0 0 4 0 0
          5 0 0 6 0 0
          0 0 0 1 0 0
          2 0 0 3 0 0
          4 0 0 5 0 0
          6 0 0
          <InformationKey name="L2_NORM_RANGE" location="vtkDataArray" length="2">
            <Value index="0">
              0
            </Value>
            <Value index="1">
              6
            </Value>
          </InformationKey>
        </DataArray>
      </Points>
      <Cells>
        <DataArray type="Int64" Name="connectivity" format="ascii" RangeMin="0" RangeMax="76">
          0 2 16 14 1 9
          15 7 8 2 4 18
          16 3 11 17 9 10
          4 6 20 18 5 13
          19 11 12 14 16 30
          28 15 23 29 21 22
          16 18 32 30 17 25
          31 23 24 18 20 34
          32 19 27 33 25 26
          28 30 44 42 29 37
          43 35 36 30 32 46
          44 31 39 45 37 38
          32 34 48 46 33 41
          47 39 40 42 44 58
          56 43 51 57 49 50
          44 46 60 58 45 53
          59 51 52 46 48 62
          60 47 55 61 53 54
          56 58 72 70 57 65
          71 63 64 58 60 74
          72 59 67 73 65 66
          60 62 76 74 61 69
          75 67 68
        </DataArray>
        <DataArray type="Int64" Name="offsets" format="ascii" RangeMin="9" RangeMax="135">
          9 18 27 36 45 54
          63 72 81 90 99 108
          117 126 135
        </DataArray>
        <DataArray type="UInt8" Name="types" format="ascii" RangeMin="28" RangeMax="28">
          28 28 28 28 28 28
          28 28 28 28 28 28
          28 28 28
        </DataArray>
      </Cells>
    </Piece>
  </UnstructuredGrid>
</VTKFile>
