<?xml version="1.0"?>
<VTKFile type="UnstructuredGrid" version="0.1" byte_order="LittleEndian" header_type="UInt32" compressor="vtkZLibDataCompressor">
  <UnstructuredGrid>
    <Piece NumberOfPoints="110" NumberOfCells="44">
      <PointData Scalars="point_type">
        <DataArray type="Int64" Name="point_type" format="ascii" RangeMin="2" RangeMax="2">
          2 2 2 2 2 2
          2 2 2 2 2 2
          2 2 2 2 2 2
          2 2 2 2 2 2
          2 2 2 2 2 2
          2 2 2 2 2 2
          2 2 2 2 2 2
          2 2 2 2 2 2
          2 2 2 2 2 2
          2 2 2 2 2 2
          2 2 2 2 2 2
          2 2 2 2 2 2
          2 2 2 2 2 2
          2 2 2 2 2 2
          2 2 2 2 2 2
          2 2 2 2 2 2
          2 2 2 2 2 2
          2 2 2 2 2 2
          2 2
        </DataArray>
        <DataArray type="Float64" Name="rotation_vector" NumberOfComponents="3" format="ascii" RangeMin="2.6179938779914944" RangeMax="4.71238898038469">
          1.926874507676449 1.9268745076764489 -0.5163044682480217 1.4879756296144508 2.226912901986796 -0.3987018683123835
          1.0121252405469616 2.443486482548606 -0.27119814084371424 0.5120536235440052 2.57426740372892 -0.1372043549100464
          -3.0090893136591915e-16 2.6179938779914944 7.522723284147979e-17 -4.212725039122868e-16 3.6651914291880923 -2.106362519561434e-16
          -0.7120636497845505 3.5797857074691386 -0.19079687991932814 -1.3798037194129669 3.3311408528196247 -0.369717292330164
          -1.9647276251001706 2.9404226857929956 -0.5264471804927084 -2.4383470626377215 2.43834706263772 -0.6533531263005776
          2.4183991523122903 2.4183991523122903 2.4183991523122903 2.4183991523122903 2.4183991523122903 2.4183991523122903
          2.4183991523122903 2.4183991523122903 2.4183991523122903 2.4183991523122903 2.4183991523122903 2.4183991523122903
          2.4183991523122903 2.4183991523122903 2.4183991523122903 -1.9268745076764495 1.9268745076764486 0.5163044682480218
          -2.3154211076929965 1.5471149219478997 0.6204152159443139 -2.639466020921753 1.0933026232887366 0.7072427887553724
          -2.884205043685116 0.5737040532477561 0.7728204122611979 -3.034545479782388 -1.0463605494025897e-15 0.8131040107032046
          -3.0345454797823876 -1.0463605494025895e-15 -0.8131040107032045 -2.8842050436851157 -0.5737040532477581 -0.7728204122611977
          -2.6394660209217515 -1.0933026232887377 -0.707242788755372 -2.315421107692996 -1.5471149219479006 -0.6204152159443138
          -1.9268745076764473 -1.9268745076764502 -0.5163044682480211 -2.4183991523122907 2.418399152312289 -2.4183991523122903
          -2.4183991523122907 2.418399152312289 -2.4183991523122903 -2.4183991523122907 2.418399152312289 -2.4183991523122903
          -2.4183991523122907 2.418399152312289 -2.4183991523122903 -2.4183991523122907 2.418399152312289 -2.4183991523122903
          2.438347062637721 2.438347062637721 0.6533531263005774 1.9647276251001706 2.9404226857929956 0.5264471804927083
          1.3798037194129662 3.3311408528196242 0.3697172923301637 0.7120636497845502 3.579785707469139 0.19079687991932806
          -4.2127250391228677e-16 3.665191429188092 0 -3.0090893136591915e-16 2.6179938779914944 -7.522723284147979e-17
          -0.5120536235440055 2.57426740372892 0.1372043549100462 -1.0121252405469618 2.443486482548606 0.271198140843714
          -1.4879756296144508 2.226912901986796 0.39870186831238325 -1.9268745076764495 1.9268745076764486 0.5163044682480217
          -1.1098329600729789e-15 4.71238898038469 -7.398886400486526e-16 -1.1098329600729789e-15 4.71238898038469 -7.398886400486526e-16
          -1.1098329600729789e-15 4.71238898038469 -7.398886400486526e-16 -1.1098329600729789e-15 4.71238898038469 -7.398886400486526e-16
          -1.1098329600729789e-15 4.71238898038469 -7.398886400486526e-16 -2.4383470626377215 2.43834706263772 -0.6533531263005774
          -2.7838355334487273 1.8600994349311144 -0.7459264830486498 -2.9953499660797718 1.2407145800040307 -0.8026016044596653
          -3.075872648459295 0.6118291102633767 -0.8241775921756465 -3.0345454797823876 -1.0463605494025895e-15 -0.8131040107032043
          -3.0345454797823876 -1.0463605494025895e-15 0.8131040107032045 -3.0758726484592955 -0.6118291102633788 0.8241775921756468
          -2.995349966079771 -1.2407145800040322 0.8026016044596653 -2.783835533448727 -1.8600994349311153 0.7459264830486501
          -2.4383470626377193 -2.438347062637723 0.6533531263005771 -2.221441469079183 -8.719671245021579e-16 -2.221441469079183
          -2.221441469079183 -8.719671245021579e-16 -2.221441469079183 -2.221441469079183 -8.719671245021579e-16 -2.221441469079183
          -2.221441469079183 -8.719671245021579e-16 -2.221441469079183 -2.221441469079183 -8.719671245021579e-16 -2.221441469079183
          1.926874507676449 1.9268745076764489 -0.5163044682480217 1.4879756296144508 2.226912901986796 -0.3987018683123836
          1.0121252405469616 2.443486482548606 -0.2711981408437143 0.5120536235440052 2.57426740372892 -0.1372043549100465
          -3.0090893136591915e-16 2.6179938779914944 -7.522723284147979e-17 -4.2127250391228677e-16 3.665191429188092 0
          -0.7120636497845505 3.5797857074691386 -0.19079687991932792 -1.3798037194129669 3.3311408528196247 -0.36971729233016376
          -1.9647276251001706 2.9404226857929956 -0.5264471804927082 -2.4383470626377215 2.43834706263772 -0.6533531263005774
          2.4183991523122903 2.4183991523122903 2.4183991523122903 2.4183991523122903 2.4183991523122903 2.4183991523122903
          2.4183991523122903 2.4183991523122903 2.4183991523122903 2.4183991523122903 2.4183991523122903 2.4183991523122903
          2.4183991523122903 2.4183991523122903 2.4183991523122903 -1.9268745076764495 1.9268745076764486 0.5163044682480217
          -2.3154211076929965 1.5471149219478997 0.6204152159443137 -2.639466020921753 1.0933026232887366 0.7072427887553723
          -2.884205043685116 0.5737040532477561 0.7728204122611976 -3.0345454797823876 -1.0463605494025895e-15 0.8131040107032045
          -3.0345454797823876 -1.0463605494025895e-15 -0.8131040107032043 -2.8842050436851157 -0.5737040532477581 -0.7728204122611976
          -2.639466020921752 -1.093302623288738 -0.707242788755372 -2.315421107692996 -1.5471149219479006 -0.6204152159443137
          -1.9268745076764473 -1.9268745076764502 -0.5163044682480211 -2.4183991523122907 2.418399152312289 -2.4183991523122903
          -2.4183991523122907 2.418399152312289 -2.4183991523122903 -2.4183991523122907 2.418399152312289 -2.4183991523122903
          -2.4183991523122907 2.418399152312289 -2.4183991523122903 -2.4183991523122907 2.418399152312289 -2.4183991523122903
          2.438347062637721 2.438347062637721 0.6533531263005774 1.9647276251001706 2.9404226857929956 0.5264471804927083
          1.3798037194129662 3.3311408528196242 0.3697172923301637 0.7120636497845502 3.579785707469139 0.19079687991932806
          -4.2127250391228677e-16 3.665191429188092 0 -3.0090893136591915e-16 2.6179938779914944 -7.522723284147979e-17
          -0.5120536235440055 2.57426740372892 0.1372043549100462 -1.0121252405469618 2.443486482548606 0.271198140843714
          -1.4879756296144508 2.226912901986796 0.39870186831238325 -1.9268745076764495 1.9268745076764486 0.5163044682480217
          -2.4383470626377215 2.43834706263772 -0.6533531263005774 -2.7838355334487273 1.8600994349311144 -0.7459264830486498
          -2.9953499660797718 1.2407145800040307 -0.8026016044596653 -3.075872648459295 0.6118291102633767 -0.8241775921756465
          -3.0345454797823876 -1.0463605494025895e-15 -0.8131040107032043 -3.0345454797823876 -1.0463605494025895e-15 0.8131040107032045
          -3.0758726484592955 -0.6118291102633788 0.8241775921756468 -2.995349966079771 -1.2407145800040322 0.8026016044596653
          -2.783835533448727 -1.8600994349311153 0.7459264830486501 -2.4383470626377193 -2.438347062637723 0.6533531263005771
          <InformationKey name="L2_NORM_RANGE" location="vtkDataArray" length="2">
            <Value index="0">
              2.617993878
            </Value>
            <Value index="1">
              4.7123889804
            </Value>
          </InformationKey>
        </DataArray>
        <DataArray type="Int64" Name="geometry_set_0_point" format="ascii" RangeMin="0" RangeMax="1">
          0 0 0 0 1 1
          0 0 0 0 0 0
          0 0 0 0 0 0
          0 1 1 0 0 0
          0 0 0 0 0 0
          0 0 0 0 0 0
          0 0 0 0 0 0
          0 0 0 0 0 0
          0 0 0 0 0 0
          0 0 0 0 0 0
          0 0 0 0 0 0
          0 0 0 0 0 0
          0 0 0 0 0 0
          0 0 0 0 0 0
          0 0 0 0 0 0
          0 0 0 0 0 0
          0 0 0 0 0 0
          0 0 0 0 0 0
          0 0
        </DataArray>
        <DataArray type="Int64" Name="geometry_set_1_point" format="ascii" RangeMin="0" RangeMax="1">
          0 0 0 0 0 0
          0 0 0 0 0 0
          0 0 0 0 0 0
          0 0 0 0 0 0
          0 0 0 0 0 0
          0 0 0 0 0 0
          0 0 0 0 0 0
          0 0 0 0 0 0
          0 0 0 0 0 0
          0 0 0 0 0 0
          0 0 0 0 0 0
          0 0 0 0 0 0
          0 0 0 0 0 0
          0 0 0 0 0 0
          0 0 0 0 0 0
          0 0 0 0 1 1
          0 0 0 0 0 0
          0 0 1 1 0 0
          0 0
        </DataArray>
        <DataArray type="Int64" Name="geometry_set_2_point" format="ascii" RangeMin="0" RangeMax="1">
          1 0 0 0 0 0
          0 0 0 0 1 0
          0 0 0 0 0 0
          0 0 0 0 0 0
          1 0 0 0 0 0
          0 0 0 0 0 0
          0 0 0 0 0 0
          0 0 0 0 0 0
          0 0 0 0 0 0
          0 0 0 0 0 0
          0 0 0 0 0 0
          0 0 0 0 0 0
          0 0 0 0 0 0
          0 0 0 0 0 0
          0 0 0 0 0 0
          0 0 0 0 0 0
          0 0 0 0 0 0
          0 0 0 0 0 0
          0 0
        </DataArray>
        <DataArray type="Int64" Name="geometry_set_3_point" format="ascii" RangeMin="0" RangeMax="1">
          0 0 0 0 1 1
          0 0 0 0 0 0
          0 0 0 0 0 0
          0 0 0 0 0 0
          0 0 0 0 0 0
          0 0 0 0 0 0
          0 0 0 0 0 0
          0 0 0 0 0 0
          0 0 0 0 0 0
          0 0 0 0 0 0
          0 0 0 0 0 0
          0 0 0 0 0 0
          0 0 0 0 0 0
          0 0 0 0 0 0
          0 0 0 0 0 0
          0 0 0 0 0 0
          0 0 0 0 0 0
          0 0 0 0 0 0
          0 0
        </DataArray>
        <DataArray type="Int64" Name="geometry_set_4_point" format="ascii" RangeMin="0" RangeMax="1">
          0 0 0 0 0 0
          0 0 0 1 0 0
          0 0 0 1 0 0
          0 0 0 0 0 0
          0 1 0 0 0 0
          0 0 0 0 0 0
          0 0 0 0 0 0
          0 0 0 0 0 0
          0 0 0 0 0 0
          0 0 0 0 0 0
          0 0 0 0 0 0
          0 0 0 0 0 0
          0 0 0 0 0 0
          0 0 0 0 0 0
          0 0 0 0 0 0
          0 0 0 0 0 0
          0 0 0 0 0 0
          0 0 0 0 0 0
          0 0
        </DataArray>
        <DataArray type="Int64" Name="geometry_set_5_point" format="ascii" RangeMin="0" RangeMax="1">
          0 0 0 0 0 0
          0 0 0 0 0 0
          0 0 1 0 0 0
          0 0 0 0 0 0
          0 0 0 0 0 0
          1 0 0 0 0 0
          0 0 0 0 0 0
          0 0 0 0 0 0
          0 0 0 0 0 0
          1 0 0 0 0 0
          0 0 0 0 0 0
          0 0 0 0 0 0
          0 0 0 0 0 0
          0 0 0 0 0 0
          0 0 0 0 0 0
          0 0 0 0 0 0
          0 0 0 0 0 0
          0 0 0 0 0 0
          0 0
        </DataArray>
        <DataArray type="Int64" Name="geometry_set_6_point" format="ascii" RangeMin="0" RangeMax="1">
          0 0 0 0 0 0
          0 0 0 0 0 0
          0 0 0 0 0 0
          0 1 1 0 0 0
          0 0 0 0 0 0
          0 0 0 0 0 0
          0 0 0 0 0 0
          0 0 0 0 0 0
          0 0 0 0 0 0
          0 0 0 0 0 0
          0 0 0 0 0 0
          0 0 0 0 0 0
          0 0 0 0 0 0
          0 0 0 0 0 0
          0 0 0 0 0 0
          0 0 0 0 0 0
          0 0 0 0 0 0
          0 0 0 0 0 0
          0 0
        </DataArray>
        <DataArray type="Int64" Name="geometry_set_7_point" format="ascii" RangeMin="0" RangeMax="1">
          0 0 0 0 0 0
          0 0 0 0 0 0
          0 0 0 0 0 0
          0 0 0 0 0 0
          0 0 0 0 0 1
          0 0 0 0 0 0
          0 0 0 1 0 0
          0 0 0 1 0 0
          0 0 0 0 0 0
          0 0 0 0 0 0
          0 0 0 0 0 0
          0 0 0 0 0 0
          0 0 0 0 0 0
          0 0 0 0 0 0
          0 0 0 0 0 0
          0 0 0 0 0 0
          0 0 0 0 0 0
          0 0 0 0 0 0
          0 0
        </DataArray>
        <DataArray type="Int64" Name="geometry_set_8_point" format="ascii" RangeMin="0" RangeMax="1">
          0 0 0 0 0 0
          0 0 0 0 0 0
          0 0 0 0 0 0
          0 0 0 0 0 0
          0 0 0 0 0 0
          0 0 0 0 1 1
          0 0 0 0 1 0
          0 0 0 0 0 0
          0 0 0 0 0 0
          0 0 0 0 0 0
          0 0 0 0 0 0
          0 0 0 0 0 0
          0 0 0 0 0 0
          0 0 0 0 0 0
          0 0 0 0 0 0
          0 0 0 0 0 0
          0 0 0 0 0 0
          0 0 0 0 0 0
          0 0
        </DataArray>
        <DataArray type="Int64" Name="geometry_set_9_point" format="ascii" RangeMin="0" RangeMax="1">
          0 0 0 0 0 0
          0 0 0 0 0 0
          0 0 0 0 0 0
          0 0 0 0 0 0
          0 0 0 0 0 0
          0 0 0 0 0 0
          0 0 0 0 0 0
          0 0 1 0 0 0
          0 0 0 0 0 0
          0 0 0 0 0 0
          0 0 0 0 1 1
          0 0 0 0 0 0
          0 0 0 0 0 0
          0 0 0 0 0 0
          0 0 0 0 0 0
          0 0 0 0 0 0
          0 0 0 0 0 0
          0 0 0 0 0 0
          0 0
        </DataArray>
        <DataArray type="Int64" Name="geometry_set_10_point" format="ascii" RangeMin="0" RangeMax="1">
          0 0 0 0 0 0
          0 0 0 0 0 0
          0 0 0 0 0 0
          0 0 0 0 0 0
          0 0 0 0 0 0
          0 0 0 0 0 0
          0 0 0 0 0 0
          0 0 0 0 0 0
          0 1 1 0 0 0
          0 1 0 0 0 0
          0 0 0 0 0 0
          0 0 0 0 0 0
          0 0 0 0 0 0
          0 0 0 0 0 0
          0 0 0 0 0 0
          0 0 0 0 0 0
          0 0 0 0 0 0
          0 0 0 0 0 0
          0 0
        </DataArray>
        <DataArray type="Int64" Name="geometry_set_11_point" format="ascii" RangeMin="0" RangeMax="1">
          0 0 0 0 0 0
          0 0 0 0 0 0
          0 0 0 0 0 0
          0 0 0 0 0 0
          0 0 0 0 0 0
          0 0 0 0 0 0
          0 0 0 0 0 0
          0 0 0 0 0 0
          0 0 0 0 0 0
          0 0 0 0 0 1
          0 0 0 0 0 0
          0 0 0 0 0 0
          0 0 0 0 0 0
          0 1 1 0 0 0
          0 0 0 0 0 0
          0 0 0 0 0 0
          0 0 0 0 0 0
          0 0 0 0 0 0
          0 0
        </DataArray>
        <DataArray type="Int64" Name="geometry_set_12_point" format="ascii" RangeMin="0" RangeMax="1">
          0 0 0 0 0 0
          0 0 0 0 0 0
          0 0 0 0 0 0
          0 0 0 0 0 0
          0 0 0 0 0 0
          0 0 0 0 0 0
          0 0 0 0 0 0
          0 0 0 0 0 0
          0 0 0 0 0 0
          0 0 0 0 0 0
          1 0 0 0 0 0
          0 0 0 0 1 0
          0 0 0 0 0 0
          0 0 0 0 0 0
          1 0 0 0 0 0
          0 0 0 0 0 0
          0 0 0 0 0 0
          0 0 0 0 0 0
          0 0
        </DataArray>
        <DataArray type="Int64" Name="geometry_set_13_point" format="ascii" RangeMin="0" RangeMax="1">
          0 0 0 0 0 0
          0 0 0 0 0 0
          0 0 0 0 0 0
          0 0 0 0 0 0
          0 0 0 0 0 0
          0 0 0 0 0 0
          0 0 0 0 0 0
          0 0 0 0 0 0
          0 0 0 0 0 0
          0 0 0 0 0 0
          0 0 0 0 0 0
          0 0 0 1 0 0
          0 0 0 1 0 0
          0 0 0 0 0 0
          0 1 0 0 0 0
          0 0 0 0 0 0
          0 0 0 0 0 0
          0 0 0 0 0 0
          0 0
        </DataArray>
        <DataArray type="Int64" Name="geometry_set_14_point" format="ascii" RangeMin="0" RangeMax="1">
          0 0 0 0 0 0
          0 0 0 0 0 0
          0 0 0 0 0 0
          0 0 0 0 0 0
          0 0 0 0 0 0
          0 0 0 0 0 0
          0 0 0 0 0 0
          0 0 0 0 0 0
          0 0 0 0 0 0
          0 0 0 0 0 0
          0 0 0 0 0 0
          0 0 0 0 0 0
          0 0 1 0 0 0
          0 0 0 0 0 0
          0 0 0 0 0 0
          1 0 0 0 0 0
          0 0 0 0 0 0
          0 0 0 0 0 0
          0 1
        </DataArray>
        <DataArray type="Int64" Name="geometry_set_15_point" format="ascii" RangeMin="0" RangeMax="1">
          0 0 0 0 0 0
          0 0 0 0 0 0
          0 0 0 0 0 0
          0 0 0 0 0 0
          0 0 0 0 0 0
          0 0 0 0 0 0
          0 0 0 0 0 0
          0 0 0 0 0 0
          0 0 0 0 0 0
          0 0 0 0 0 0
          0 0 0 0 0 0
          0 0 0 0 0 0
          0 0 0 0 0 0
          0 0 0 0 0 0
          0 0 0 0 0 1
          0 0 0 0 0 0
          0 0 0 1 1 0
          0 0 0 0 0 0
          0 0
        </DataArray>
        <DataArray type="Int64" Name="geometry_set_16_point" format="ascii" RangeMin="0" RangeMax="1">
          0 0 0 0 0 0
          0 0 0 0 0 0
          0 0 0 0 0 0
          0 0 0 0 0 0
          0 0 0 0 0 0
          0 0 0 0 0 0
          0 0 0 0 0 0
          0 0 0 0 0 0
          0 0 0 0 0 0
          0 0 0 0 0 0
          0 0 0 0 0 0
          0 0 0 0 0 0
          0 0 0 0 0 0
          0 0 0 0 0 0
          0 0 0 0 0 0
          0 0 0 0 1 1
          0 0 0 0 0 0
          0 0 0 0 0 0
          0 0
        </DataArray>
        <DataArray type="Int64" Name="geometry_set_17_point" format="ascii" RangeMin="0" RangeMax="1">
          0 0 0 0 0 0
          0 0 0 0 0 0
          0 0 0 0 0 0
          0 0 0 0 0 0
          0 0 0 0 0 0
          0 0 0 0 0 0
          0 0 0 0 0 0
          0 0 0 0 0 0
          0 0 0 0 0 0
          0 0 0 0 0 0
          0 0 0 0 0 0
          0 0 0 0 0 0
          0 0 0 0 0 0
          0 0 0 0 0 0
          0 0 0 0 0 0
          0 0 0 0 0 0
          0 0 0 0 0 0
          0 0 1 1 0 0
          0 0
        </DataArray>
        <DataArray type="Int64" Name="geometry_set_18_line" format="ascii" RangeMin="1" RangeMax="1">
          1 1 1 1 1 1
          1 1 1 1 1 1
          1 1 1 1 1 1
          1 1 1 1 1 1
          1 1 1 1 1 1
          1 1 1 1 1 1
          1 1 1 1 1 1
          1 1 1 1 1 1
          1 1 1 1 1 1
          1 1 1 1 1 1
          1 1 1 1 1 1
          1 1 1 1 1 1
          1 1 1 1 1 1
          1 1 1 1 1 1
          1 1 1 1 1 1
          1 1 1 1 1 1
          1 1 1 1 1 1
          1 1 1 1 1 1
          1 1
        </DataArray>
        <DataArray type="Float64" Name="node_value" format="ascii" RangeMin="0.5" RangeMax="1">
          1 0.5 1 0.5 1 1
          0.5 1 0.5 1 1 0.5
          1 0.5 1 1 0.5 1
          0.5 1 1 0.5 1 0.5
          1 1 0.5 1 0.5 1
          1 0.5 1 0.5 1 1
          0.5 1 0.5 1 1 0.5
          1 0.5 1 1 0.5 1
          0.5 1 1 0.5 1 0.5
          1 1 0.5 1 0.5 1
          1 0.5 1 0.5 1 1
          0.5 1 0.5 1 1 0.5
          1 0.5 1 1 0.5 1
          0.5 1 1 0.5 1 0.5
          1 1 0.5 1 0.5 1
          1 0.5 1 0.5 1 1
          0.5 1 0.5 1 1 0.5
          1 0.5 1 1 0.5 1
          0.5 1
        </DataArray>
        <DataArray type="Float64" Name="base_vector_1" NumberOfComponents="3" format="ascii" RangeMin="0.9999999999999999" RangeMax="1.0000000000000002">
          -2.220446049250313e-16 0.8660254037844387 -0.5000000000000003 -0.3314135740355917 0.8001031451912656 -0.5
          -0.6123724356957947 0.6123724356957946 -0.5000000000000003 -0.8001031451912657 0.3314135740355917 -0.4999999999999998
          -0.8660254037844388 -2.0011127533102482e-16 -0.49999999999999994 -0.8660254037844388 -1.8574393217680903e-16 0.5000000000000002
          -0.8001031451912655 -0.33141357403559185 0.49999999999999994 -0.6123724356957945 -0.6123724356957946 0.5000000000000001
          -0.3314135740355919 -0.8001031451912656 0.49999999999999983 2.220446049250313e-16 -0.8660254037844389 0.4999999999999998
          -2.220446049250313e-16 2.775557561562891e-16 1 -2.220446049250313e-16 2.775557561562891e-16 1
          -2.220446049250313e-16 2.775557561562891e-16 1 -2.220446049250313e-16 2.775557561562891e-16 1
          -2.220446049250313e-16 2.775557561562891e-16 1 3.3306690738754696e-16 -0.8660254037844388 -0.4999999999999999
          0.33141357403559224 -0.8001031451912654 -0.5 0.6123724356957948 -0.6123724356957942 -0.4999999999999998
          0.8001031451912656 -0.3314135740355914 -0.5 0.8660254037844387 5.601933017363133e-16 -0.49999999999999994
          0.8660254037844387 6.117396639414042e-16 0.49999999999999994 0.8001031451912651 0.3314135740355927 0.5
          0.6123724356957942 0.6123724356957949 0.5 0.3314135740355918 0.8001031451912655 0.4999999999999999
          -1.1102230246251565e-15 0.8660254037844385 0.5000000000000001 1.1102230246251565e-16 5.551115123125784e-17 0.9999999999999999
          1.1102230246251565e-16 5.551115123125784e-17 0.9999999999999999 1.1102230246251565e-16 5.551115123125784e-17 0.9999999999999999
          1.1102230246251565e-16 5.551115123125784e-17 0.9999999999999999 1.1102230246251565e-16 5.551115123125784e-17 0.9999999999999999
          0 0.8660254037844386 0.5000000000000001 -0.3314135740355919 0.8001031451912656 0.49999999999999983
          -0.6123724356957947 0.6123724356957946 0.49999999999999967 -0.8001031451912652 0.33141357403559163 0.5000000000000003
          -0.8660254037844388 -2.144786184852406e-16 0.49999999999999983 -0.8660254037844388 -2.288459616394564e-16 -0.49999999999999994
          -0.8001031451912655 -0.33141357403559196 -0.4999999999999998 -0.6123724356957945 -0.6123724356957947 -0.4999999999999999
          -0.3314135740355917 -0.8001031451912656 -0.4999999999999999 3.3306690738754696e-16 -0.8660254037844388 -0.4999999999999999
          -2.220446049250313e-16 -7.850462293418877e-17 1 -2.220446049250313e-16 -7.850462293418877e-17 1
          -2.220446049250313e-16 -7.850462293418877e-17 1 -2.220446049250313e-16 -7.850462293418877e-17 1
          -2.220446049250313e-16 -7.850462293418877e-17 1 2.220446049250313e-16 -0.8660254037844389 0.49999999999999967
          0.33141357403559213 -0.8001031451912655 0.4999999999999996 0.612372435695795 -0.6123724356957942 0.4999999999999999
          0.8001031451912656 -0.33141357403559174 0.4999999999999999 0.8660254037844387 4.968009187076779e-16 0.4999999999999999
          0.8660254037844387 6.751320469700394e-16 -0.49999999999999994 0.8001031451912652 0.33141357403559263 -0.4999999999999999
          0.6123724356957941 0.6123724356957951 -0.4999999999999998 0.3314135740355917 0.8001031451912657 -0.49999999999999994
          -1.5543122344752192e-15 0.8660254037844389 -0.49999999999999956 0 3.059275090473944e-16 1
          0 3.059275090473944e-16 1 0 3.059275090473944e-16 1
          0 3.059275090473944e-16 1 0 3.059275090473944e-16 1
          -2.220446049250313e-16 0.8660254037844387 -0.5000000000000003 -0.3314135740355917 0.8001031451912656 -0.5
          -0.6123724356957947 0.6123724356957945 -0.5000000000000003 -0.8001031451912657 0.33141357403559163 -0.4999999999999998
          -0.8660254037844388 -2.288459616394564e-16 -0.49999999999999994 -0.8660254037844388 -2.144786184852406e-16 0.49999999999999983
          -0.8001031451912655 -0.33141357403559196 0.5 -0.6123724356957945 -0.6123724356957946 0.5000000000000001
          -0.3314135740355919 -0.8001031451912657 0.49999999999999983 2.220446049250313e-16 -0.8660254037844389 0.49999999999999967
          -2.220446049250313e-16 2.775557561562891e-16 1 -2.220446049250313e-16 2.775557561562891e-16 1
          -2.220446049250313e-16 2.775557561562891e-16 1 -2.220446049250313e-16 2.775557561562891e-16 1
          -2.220446049250313e-16 2.775557561562891e-16 1 3.3306690738754696e-16 -0.8660254037844388 -0.4999999999999999
          0.33141357403559235 -0.8001031451912654 -0.4999999999999999 0.6123724356957949 -0.6123724356957942 -0.4999999999999998
          0.8001031451912657 -0.3314135740355915 -0.4999999999999999 0.8660254037844387 6.751320469700394e-16 -0.49999999999999994
          0.8660254037844387 4.968009187076779e-16 0.4999999999999999 0.8001031451912651 0.33141357403559274 0.5
          0.6123724356957942 0.612372435695795 0.4999999999999998 0.3314135740355919 0.8001031451912655 0.49999999999999983
          -1.1102230246251565e-15 0.8660254037844385 0.5000000000000001 1.1102230246251565e-16 5.551115123125784e-17 0.9999999999999999
          1.1102230246251565e-16 5.551115123125784e-17 0.9999999999999999 1.1102230246251565e-16 5.551115123125784e-17 0.9999999999999999
          1.1102230246251565e-16 5.551115123125784e-17 0.9999999999999999 1.1102230246251565e-16 5.551115123125784e-17 0.9999999999999999
          0 0.8660254037844386 0.5000000000000001 -0.3314135740355919 0.8001031451912656 0.49999999999999983
          -0.6123724356957947 0.6123724356957946 0.49999999999999967 -0.8001031451912652 0.33141357403559163 0.5000000000000003
          -0.8660254037844388 -2.144786184852406e-16 0.49999999999999983 -0.8660254037844388 -2.288459616394564e-16 -0.49999999999999994
          -0.8001031451912655 -0.33141357403559196 -0.4999999999999998 -0.6123724356957945 -0.6123724356957947 -0.4999999999999999
          -0.3314135740355917 -0.8001031451912656 -0.4999999999999999 3.3306690738754696e-16 -0.8660254037844388 -0.4999999999999999
          2.220446049250313e-16 -0.8660254037844389 0.49999999999999967 0.33141357403559213 -0.8001031451912655 0.4999999999999996
          0.612372435695795 -0.6123724356957942 0.4999999999999999 0.8001031451912656 -0.33141357403559174 0.4999999999999999
          0.8660254037844387 4.968009187076779e-16 0.4999999999999999 0.8660254037844387 6.751320469700394e-16 -0.49999999999999994
          0.8001031451912652 0.33141357403559263 -0.4999999999999999 0.6123724356957941 0.6123724356957951 -0.4999999999999998
          0.3314135740355917 0.8001031451912657 -0.49999999999999994 -1.5543122344752192e-15 0.8660254037844389 -0.49999999999999956
          <InformationKey name="L2_NORM_RANGE" location="vtkDataArray" length="2">
            <Value index="0">
              1
            </Value>
            <Value index="1">
              1
            </Value>
          </InformationKey>
        </DataArray>
        <DataArray type="Float64" Name="base_vector_2" NumberOfComponents="3" format="ascii" RangeMin="0.9999999999999997" RangeMax="1.0000000000000002">
          1.0000000000000002 -2.220446049250313e-16 1.665334536937735e-16 0.9238795325112868 0.3826834323650895 -5.551115123125783e-17
          0.7071067811865476 0.7071067811865475 5.551115123125783e-17 0.3826834323650896 0.9238795325112867 -1.1102230246251568e-16
          -2.288459616394564e-16 1 -3.8497179955529285e-18 -2.4321330479367216e-16 1 -4.9769936625757195e-17
          -0.3826834323650899 0.9238795325112867 -2.7755575615628914e-17 -0.7071067811865476 0.7071067811865475 0
          -0.9238795325112868 0.3826834323650896 -1.665334536937735e-16 -1.0000000000000002 -6.661338147750939e-16 -3.05311331771918e-16
          1 -2.220446049250313e-16 2.775557561562891e-16 1 -2.220446049250313e-16 2.775557561562891e-16
          1 -2.220446049250313e-16 2.775557561562891e-16 1 -2.220446049250313e-16 2.775557561562891e-16
          1 -2.220446049250313e-16 2.775557561562891e-16 -1 -4.440892098500626e-16 8.326672684688674e-17
          -0.9238795325112866 -0.3826834323650903 -1.3877787807814457e-16 -0.707106781186547 -0.7071067811865481 4.163336342344338e-16
          -0.38268343236508967 -0.9238795325112865 -5.273559366969492e-16 7.266784091751304e-16 -1 1.38257321982025e-16
          6.751320469700394e-16 -1 5.4116320712722246e-17 0.3826834323650909 -0.9238795325112861 -1.804112415015879e-16
          0.7071067811865479 -0.7071067811865472 -1.3877787807814457e-16 0.9238795325112867 -0.3826834323650896 0
          1 1.5543122344752192e-15 -3.05311331771918e-16 -0.9999999999999999 -6.661338147750939e-16 5.551115123125784e-17
          -0.9999999999999999 -6.661338147750939e-16 5.551115123125784e-17 -0.9999999999999999 -6.661338147750939e-16 5.551115123125784e-17
          -0.9999999999999999 -6.661338147750939e-16 5.551115123125784e-17 -0.9999999999999999 -6.661338147750939e-16 5.551115123125784e-17
          1.0000000000000002 0 -5.551115123125785e-17 0.9238795325112868 0.3826834323650897 1.1102230246251568e-16
          0.7071067811865476 0.7071067811865477 1.6653345369377346e-16 0.38268343236508967 0.9238795325112867 -6.938893903907228e-17
          -2.144786184852406e-16 1 5.746937261686305e-17 -2.0011127533102482e-16 1 -1.1108902723817322e-16
          -0.3826834323650899 0.9238795325112867 -1.1102230246251568e-16 -0.7071067811865477 0.7071067811865475 -1.1102230246251568e-16
          -0.9238795325112868 0.3826834323650896 -1.3877787807814457e-16 -1 -4.440892098500626e-16 2.7755575615628914e-17
          -3.925231146709438e-16 1 7.850462293418875e-17 -3.925231146709438e-16 1 7.850462293418875e-17
          -3.925231146709438e-16 1 7.850462293418875e-17 -3.925231146709438e-16 1 7.850462293418875e-17
          -3.925231146709438e-16 1 7.850462293418875e-17 -1.0000000000000002 -6.661338147750939e-16 -1.9428902930940235e-16
          -0.9238795325112865 -0.3826834323650905 -3.885780586188047e-16 -0.7071067811865472 -0.7071067811865481 1.6653345369377346e-16
          -0.3826834323650896 -0.923879532511287 -1.1102230246251568e-16 7.900707922037655e-16 -1 -3.748409162577589e-16
          6.117396639414042e-16 -1 -2.906999149884562e-16 0.3826834323650907 -0.9238795325112861 -2.7755575615628907e-17
          0.7071067811865479 -0.7071067811865472 -4.996003610813204e-16 0.9238795325112868 -0.38268343236508984 -1.3877787807814464e-16
          1 1.3322676295501878e-15 -5.551115123125782e-16 4.79118720294493e-16 -1 3.059275090473944e-16
          4.79118720294493e-16 -1 3.059275090473944e-16 4.79118720294493e-16 -1 3.059275090473944e-16
          4.79118720294493e-16 -1 3.059275090473944e-16 4.79118720294493e-16 -1 3.059275090473944e-16
          1.0000000000000002 -2.220446049250313e-16 1.665334536937735e-16 0.9238795325112868 0.3826834323650895 -5.551115123125783e-17