<?xml version="1.0"?>
<VTKFile type="UnstructuredGrid" version="0.1" byte_order="LittleEndian" header_type="UInt32" compressor="vtkZLibDataCompressor">
  <UnstructuredGrid>
    <Piece NumberOfPoints="12" NumberOfCells="6">
      <PointData Scalars="point_type">
        <DataArray type="Int64" Name="point_type" format="ascii" RangeMin="4" RangeMax="4">
          4 4 4 4 4 4
          4 4 4 4 4 4
        </DataArray>
        <DataArray type="Float64" Name="rotation_vector" NumberOfComponents="3" format="ascii" RangeMin="0" RangeMax="0">
          0 0 0 0 0 0
          0 0 0 0 0 0
          0 0 0 0 0 0
          0 0 0 0 0 0
          0 0 0 0 0 0
          0 0 0 0 0 0
          <InformationKey name="L2_NORM_RANGE" location="vtkDataArray" length="2">
            <Value index="0">
              0
            </Value>
            <Value index="1">
              0
            </Value>
          </InformationKey>
        </DataArray>
        <DataArray type="Float64" Name="time" format="ascii" RangeMin="2.5" RangeMax="9.4">
          2.5 2.5 2.5 4.800000000000001 4.800000000000001 4.800000000000001
          7.1000000000000005 7.1000000000000005 7.1000000000000005 9.4 9.4 9.4
        </DataArray>
        <DataArray type="Int64" Name="geometry_set_0_point" format="ascii" RangeMin="0" RangeMax="1">
          0 0 0 0 0 0
          0 0 0 1 1 1
        </DataArray>
        <DataArray type="Int64" Name="geometry_set_1_point" format="ascii" RangeMin="0" RangeMax="1">
          1 0 0 1 0 0
          1 0 0 1 0 0
        </DataArray>
        <DataArray type="Int64" Name="geometry_set_2_point_right" format="ascii" RangeMin="0" RangeMax="1">
          0 0 1 0 0 1
          0 0 1 0 0 1
        </DataArray>
        <DataArray type="Int64" Name="geometry_set_3_point_start" format="ascii" RangeMin="0" RangeMax="1">
          1 1 1 0 0 0
          0 0 0 0 0 0
        </DataArray>
        <DataArray type="Int64" Name="geometry_set_4_surface_surface" format="ascii" RangeMin="1" RangeMax="1">
          1 1 1 1 1 1
          1 1 1 1 1 1
        </DataArray>
      </PointData>
      <CellData Scalars="element_type_id">
        <DataArray type="Int64" Name="element_type_id" format="ascii" RangeMin="0" RangeMax="0">
          0 0 0 0 0 0
        </DataArray>
        <DataArray type="Int64" Name="material_id" format="ascii" RangeMin="-1" RangeMax="-1">
          -1 -1 -1 -1 -1 -1
        </DataArray>
        <DataArray type="Int64" Name="beamme_id" format="ascii" RangeMin="0" RangeMax="5">
          0 1 2 3 4 5
        </DataArray>
        <DataArray type="Float64" Name="rotation_vector" NumberOfComponents="12" format="ascii" RangeMin="0" RangeMax="0">
          0 0 0 0 0 0
          0 0 0 0 0 0
          0 0 0 0 0 0
          0 0 0 0 0 0
          0 0 0 0 0 0
          0 0 0 0 0 0
          0 0 0 0 0 0
          0 0 0 0 0 0
          0 0 0 0 0 0
          0 0 0 0 0 0
          0 0 0 0 0 0
          0 0 0 0 0 0
          <InformationKey name="L2_NORM_RANGE" location="vtkDataArray" length="2">
            <Value index="0">
              0
            </Value>
            <Value index="1">
              0
            </Value>
          </InformationKey>
        </DataArray>
      </CellData>
      <Points>
        <DataArray type="Float64" Name="Points" NumberOfComponents="3" format="ascii" RangeMin="0" RangeMax="6">
          0 0 0 3 0 0
          6 0 0 0 0 0
          3 0 0 6 0 0
          0 0 0 3 0 0
          6 0 0 0 0 0
          3 0 0 6 0 0
          <InformationKey name="L2_NORM_RANGE" location="vtkDataArray" length="2">
            <Value index="0">
              0
            </Value>
            <Value index="1">
              6
            </Value>
          </InformationKey>
        </DataArray>
      </Points>
      <Cells>
        <DataArray type="Int64" Name="connectivity" format="ascii" RangeMin="0" RangeMax="11">
          0 1 4 3 1 2
          5 4 3 4 7 6
          4 5 8 7 6 7
          10 9 7 8 11 10
        </DataArray>
        <DataArray type="Int64" Name="offsets" format="ascii" RangeMin="4" RangeMax="24">
          4 8 12 16 20 24
        </DataArray>
        <DataArray type="UInt8" Name="types" format="ascii" RangeMin="9" RangeMax="9">
          9 9 9 9 9 9
        </DataArray>
      </Cells>
    </Piece>
  </UnstructuredGrid>
</VTKFile>
